
.Version 8.11.13 of ABINIT 
.(MPI version, prepared for a x86_64_linux_intel14.0 computer) 

.Copyright (C) 1998-2019 ABINIT group . 
 ABINIT comes with ABSOLUTELY NO WARRANTY.
 It is free software, and you are welcome to redistribute it
 under certain conditions (GNU General Public License,
 see ~abinit/COPYING or http://www.gnu.org/copyleft/gpl.txt).

 ABINIT is a project of the Universite Catholique de Louvain,
 Corning Inc. and other collaborators, see ~abinit/doc/developers/contributors.txt .
 Please read https://docs.abinit.org/theory/acknowledgments for suggested
 acknowledgments of the ABINIT effort.
 For more information, see https://www.abinit.org .

.Starting date : Fri 13 Dec 2019.
- ( at 14h20 )
  
- input  file    -> sp.in
- output file    -> sp.out
- root for input  files -> spi
- root for output files -> spo
 
 
 Symmetries : space group Pn m a (# 62); Bravais oP (primitive ortho.)
================================================================================
 Values of the parameters that define the memory need of the present run
     intxc =       0    ionmov =       2      iscf =       7    lmnmax =       6
     lnmax =       6     mgfft =      50  mpssoang =       3    mqgrid =    3001
     natom =      20  nloc_mem =       1    nspden =       1   nspinor =       1
    nsppol =       1      nsym =       8    n1xccc =    2501    ntypat =       3
    occopt =       1   xclevel =       2
-    mband =          90        mffmem =           1         mkmem =           1
       mpw =        3818          nfft =       64800          nkpt =           1
================================================================================
P This job should need less than                      27.925 Mbytes of memory.
  Rough estimation (10% accuracy) of disk space for files :
_ WF disk file :      5.245 Mbytes ; DEN or POT disk file :      0.496 Mbytes.
================================================================================
 
--------------------------------------------------------------------------------
------------- Echo of variables that govern the present computation ------------
--------------------------------------------------------------------------------
-
- outvars: echo of selected default values                                      
-   iomode0 =  0 , fftalg0 =312 , wfoptalg0 =  0
-
- outvars: echo of global parameters not present in the input file              
-  max_nthreads =    0
-
 -outvars: echo values of preprocessed input variables --------
            acell      5.4040000000E+00  5.5130000000E+00  7.6970000000E+00 Bohr
              amu      4.00780000E+01  4.78800000E+01  1.59994000E+01
          dilatmx      1.05000000E+00
             ecut      4.50000000E+01 Hartree
           ecutsm      5.00000000E-01 Hartree
-          fftalg         312
           ionmov           2
              ixc          11
              kpt      2.50000000E-01  2.50000000E-01  2.50000000E-01
         kptrlatt        2    0    0      0    2    0      0    0    2
          kptrlen      1.08080000E+01
P           mkmem           1
            natom          20
            nband          90
            ngfft          36      36      50
             nkpt           1
             nsym           8
            ntime          20
           ntypat           3
              occ      2.000000  2.000000  2.000000  2.000000  2.000000  2.000000
                       2.000000  2.000000  2.000000  2.000000  2.000000  2.000000
                       2.000000  2.000000  2.000000  2.000000  2.000000  2.000000
                       2.000000  2.000000  2.000000  2.000000  2.000000  2.000000
                       2.000000  2.000000  2.000000  2.000000  2.000000  2.000000
                       2.000000  2.000000  2.000000  2.000000  2.000000  2.000000
                       2.000000  2.000000  2.000000  2.000000  2.000000  2.000000
                       2.000000  2.000000  2.000000  2.000000  2.000000  2.000000
                       2.000000  2.000000  2.000000  2.000000  2.000000  2.000000
                       2.000000  2.000000  2.000000  2.000000  2.000000  2.000000
                       2.000000  2.000000  2.000000  2.000000  2.000000  2.000000
                       2.000000  2.000000  2.000000  2.000000  2.000000  2.000000
                       2.000000  2.000000  2.000000  2.000000  2.000000  2.000000
                       2.000000  2.000000  0.000000  0.000000  0.000000  0.000000
                       0.000000  0.000000  0.000000  0.000000  0.000000  0.000000
          optcell           2
           shiftk      5.00000000E-01  5.00000000E-01  5.00000000E-01
          spgroup          62
           symrel      1  0  0   0  1  0   0  0  1      -1  0  0   0 -1  0   0  0 -1
                      -1  0  0   0  1  0   0  0 -1       1  0  0   0 -1  0   0  0  1
                      -1  0  0   0 -1  0   0  0  1       1  0  0   0  1  0   0  0 -1
                       1  0  0   0 -1  0   0  0 -1      -1  0  0   0  1  0   0  0  1
            tnons      0.0000000  0.0000000  0.0000000     0.0000000  0.0000000  0.0000000
                       0.5000000  0.5000000  0.5000000     0.5000000  0.5000000  0.5000000
                       0.0000000  0.0000000  0.5000000     0.0000000  0.0000000  0.5000000
                       0.5000000  0.5000000  0.0000000     0.5000000  0.5000000  0.0000000
           toldfe      1.00000000E-10 Hartree
            typat      1  1  1  1  2  2  2  2  3  3  3  3  3  3  3  3  3  3  3  3
           xangst      2.4307225899E-02  2.7866564940E+00  3.0548077309E+00
                       1.4055295917E+00  1.3279795185E+00  3.0548077309E+00
                       1.4541440435E+00  1.5893744325E+00  1.0182692436E+00
                       2.8353664093E+00  1.3069745700E-01  1.0182692436E+00
                       0.0000000000E+00  1.4586769755E+00  0.0000000000E+00
                       0.0000000000E+00  1.4586769755E+00  2.0365384873E+00
                       1.4298368176E+00  0.0000000000E+00  0.0000000000E+00
                       1.4298368176E+00  0.0000000000E+00  2.0365384873E+00
                       2.2334051091E-01  1.3985794841E+00  1.0182692436E+00
                       5.9338227931E-01  6.0710135719E-01  2.2023127201E+00
                       5.9338227931E-01  6.0710135719E-01  3.9073027417E+00
                       8.3645453830E-01  2.0657783327E+00  3.9073027417E+00
                       8.3645453830E-01  2.0657783327E+00  2.2023127201E+00
                       1.2064963067E+00  2.8572564596E+00  1.0182692436E+00
                       1.6531773285E+00  6.0097491390E-02  3.0548077309E+00
                       2.0232190969E+00  8.5157561828E-01  1.8707642544E+00
                       2.0232190969E+00  8.5157561828E-01  1.6577423286E-01
                       2.2662913559E+00  2.3102525938E+00  1.6577423286E-01
                       2.2662913559E+00  2.3102525938E+00  1.8707642544E+00
                       2.6363331243E+00  1.5187744669E+00  3.0548077309E+00
            xcart      4.5934000000E-02  5.2660176000E+00  5.7727500000E+00
                       2.6560660000E+00  2.5095176000E+00  5.7727500000E+00
                       2.7479340000E+00  3.0034824000E+00  1.9242500000E+00
                       5.3580660000E+00  2.4698240000E-01  1.9242500000E+00
                       0.0000000000E+00  2.7565000000E+00  0.0000000000E+00
                       0.0000000000E+00  2.7565000000E+00  3.8485000000E+00
                       2.7020000000E+00  0.0000000000E+00  0.0000000000E+00
                       2.7020000000E+00  0.0000000000E+00  3.8485000000E+00
                       4.2205240000E-01  2.6429322000E+00  1.9242500000E+00
                       1.1213300000E+00  1.1472553000E+00  4.1617679000E+00
                       1.1213300000E+00  1.1472553000E+00  7.3837321000E+00
                       1.5806700000E+00  3.9037553000E+00  7.3837321000E+00
                       1.5806700000E+00  3.9037553000E+00  4.1617679000E+00
                       2.2799476000E+00  5.3994322000E+00  1.9242500000E+00
                       3.1240524000E+00  1.1356780000E-01  5.7727500000E+00
                       3.8233300000E+00  1.6092447000E+00  3.5352321000E+00
                       3.8233300000E+00  1.6092447000E+00  3.1326790000E-01
                       4.2826700000E+00  4.3657447000E+00  3.1326790000E-01
                       4.2826700000E+00  4.3657447000E+00  3.5352321000E+00
                       4.9819476000E+00  2.8700678000E+00  5.7727500000E+00
             xred      8.5000000000E-03  9.5520000000E-01  7.5000000000E-01
                       4.9150000000E-01  4.5520000000E-01  7.5000000000E-01
                       5.0850000000E-01  5.4480000000E-01  2.5000000000E-01
                       9.9150000000E-01  4.4800000000E-02  2.5000000000E-01
                       0.0000000000E+00  5.0000000000E-01  0.0000000000E+00
                       0.0000000000E+00  5.0000000000E-01  5.0000000000E-01
                       5.0000000000E-01  0.0000000000E+00  0.0000000000E+00
                       5.0000000000E-01  0.0000000000E+00  5.0000000000E-01
                       7.8100000000E-02  4.7940000000E-01  2.5000000000E-01
                       2.0750000000E-01  2.0810000000E-01  5.4070000000E-01
                       2.0750000000E-01  2.0810000000E-01  9.5930000000E-01
                       2.9250000000E-01  7.0810000000E-01  9.5930000000E-01
                       2.9250000000E-01  7.0810000000E-01  5.4070000000E-01
                       4.2190000000E-01  9.7940000000E-01  2.5000000000E-01
                       5.7810000000E-01  2.0600000000E-02  7.5000000000E-01
                       7.0750000000E-01  2.9190000000E-01  4.5930000000E-01
                       7.0750000000E-01  2.9190000000E-01  4.0700000000E-02
                       7.9250000000E-01  7.9190000000E-01  4.0700000000E-02
                       7.9250000000E-01  7.9190000000E-01  4.5930000000E-01
                       9.2190000000E-01  5.2060000000E-01  7.5000000000E-01
            znucl       20.00000   22.00000    8.00000
 
================================================================================
 
 chkinp: Checking input parameters for consistency.
 
================================================================================
== DATASET  1 ==================================================================
-   nproc =    1
 
 Exchange-correlation functional for the present dataset will be:
  GGA: Perdew-Burke-Ernzerhof functional - ixc=11
 Citation for XC functional:
  J.P.Perdew, K.Burke, M.Ernzerhof, PRL 77, 3865 (1996)
 
 Real(R)+Recip(G) space primitive vectors, cartesian coordinates (Bohr,Bohr^-1):
 R(1)=  5.4040000  0.0000000  0.0000000  G(1)=  0.1850481  0.0000000  0.0000000
 R(2)=  0.0000000  5.5130000  0.0000000  G(2)=  0.0000000  0.1813894  0.0000000
 R(3)=  0.0000000  0.0000000  7.6970000  G(3)=  0.0000000  0.0000000  0.1299207
 Unit cell volume ucvol=  2.2931096E+02 bohr^3
 Angles (23,13,12)=  9.00000000E+01  9.00000000E+01  9.00000000E+01 degrees
 
 getcut: wavevector=  0.0000  0.0000  0.0000  ngfft=  36  36  50
         ecut(hartree)=     49.613   => boxcut(ratio)=   2.04874
 
--- Pseudopotential description ------------------------------------------------
- pspini: atom type   1  psp file is /CECI/home/ucl/naps/jovbever/.PsP/CTO/Ca.psp8
- pspatm: opening atomic psp file    /CECI/home/ucl/naps/jovbever/.PsP/CTO/Ca.psp8
- Ca    ONCVPSP-3.2.3.1  r_core=   1.45885   1.45885   1.85192
- 20.00000  10.00000    170504                znucl, zion, pspdat
    8   11    2    4       400   0.00000      pspcod,pspxc,lmax,lloc,mmax,r2well
    3.99000000000000    6.00000000000000    0.00000000000000   rchrg,fchrg,qchrg
     nproj     2     2     2
     extension_switch     1
  pspatm : epsatm=   12.33414111
         --- l  ekb(1:nproj) -->
             0   10.063789    0.972391
             1    3.049878    0.471799
             2   -3.406671   -1.078890
 pspatm: atomic psp has been read  and splines computed
 
- pspini: atom type   2  psp file is /CECI/home/ucl/naps/jovbever/.PsP/CTO/Ti.psp8
- pspatm: opening atomic psp file    /CECI/home/ucl/naps/jovbever/.PsP/CTO/Ti.psp8
- Ti    ONCVPSP-3.2.3.1  r_core=   1.35825   1.31050   1.66360
- 22.00000  12.00000    170504                znucl, zion, pspdat
    8   11    2    4       600   0.00000      pspcod,pspxc,lmax,lloc,mmax,r2well
    5.99000000000000    2.50000000000000    0.00000000000000   rchrg,fchrg,qchrg
     nproj     2     2     2
     extension_switch     1
  pspatm : epsatm=   14.68144390
         --- l  ekb(1:nproj) -->
             0   11.362348    1.263639
             1    1.975402   -0.084666
             2   -5.186090   -1.477451
 pspatm: atomic psp has been read  and splines computed
 
- pspini: atom type   3  psp file is /CECI/home/ucl/naps/jovbever/.PsP/CTO/O.psp8
- pspatm: opening atomic psp file    /CECI/home/ucl/naps/jovbever/.PsP/CTO/O.psp8
- O     ONCVPSP-3.2.3.1  r_core=   1.35509   1.45563   1.26150
-  8.00000   6.00000    170504                znucl, zion, pspdat
    8   11    2    4       600   0.00000      pspcod,pspxc,lmax,lloc,mmax,r2well
    5.99000000000000    4.00000000000000    0.00000000000000   rchrg,fchrg,qchrg
     nproj     2     2     1
     extension_switch     1
  pspatm : epsatm=    6.19546011
         --- l  ekb(1:nproj) -->
             0    6.056735    0.824024
             1   -4.717130   -1.149271
             2   -1.331955
 pspatm: atomic psp has been read  and splines computed
 
   2.91852578E+04                                ecore*ucvol(ha*bohr**3)
--------------------------------------------------------------------------------
 
_setup2: Arith. and geom. avg. npw (full set) are    3818.000    3818.000
 
================================================================================
 
=== [ionmov= 2] Broyden-Fletcher-Goldfard-Shanno method (forces)            
================================================================================
 
--- Iteration: ( 1/20) Internal Cycle: (1/1)
--------------------------------------------------------------------------------
 
---SELF-CONSISTENT-FIELD CONVERGENCE--------------------------------------------
 
     iter   Etot(hartree)      deltaE(h)  residm     vres2
 ETOT  1  -536.88774049485    -5.369E+02 2.262E-01 1.689E+03
 ETOT  2  -537.61554027186    -7.278E-01 2.257E-02 1.585E+03
 ETOT  3  -538.03065389451    -4.151E-01 1.933E-02 1.082E+02
 ETOT  4  -538.06527703213    -3.462E-02 3.720E-03 1.685E+00
 ETOT  5  -538.06588558705    -6.086E-04 3.433E-03 1.835E-01
 ETOT  6  -538.06595245166    -6.686E-05 1.078E-03 4.890E-03
 ETOT  7  -538.06595500407    -2.552E-06 1.273E-03 3.896E-04
 ETOT  8  -538.06595525663    -2.526E-07 4.243E-04 4.026E-05
 ETOT  9  -538.06595529057    -3.394E-08 5.334E-04 2.837E-07
 ETOT 10  -538.06595529390    -3.325E-09 1.842E-04 2.532E-08
 ETOT 11  -538.06595529437    -4.721E-10 2.412E-04 1.527E-08
 ETOT 12  -538.06595529445    -7.640E-11 8.489E-05 5.278E-10
 ETOT 13  -538.06595529446    -1.137E-11 1.131E-04 5.789E-11
 
 At SCF step   13, etot is converged : 
  for the second time, diff in etot=  1.137E-11 < toldfe=  1.000E-10
 
 Cartesian components of stress tensor (hartree/bohr^3)
  sigma(1 1)= -3.40151272E-01  sigma(3 2)=  0.00000000E+00
  sigma(2 2)= -3.32792235E-01  sigma(3 1)=  0.00000000E+00
  sigma(3 3)= -3.47485382E-01  sigma(2 1)=  0.00000000E+00
 
 Integrated electronic density in atomic spheres:
 ------------------------------------------------
 Atom  Sphere_radius  Integrated_density
    1        2.00000         18.35031618
    2        2.00000         18.35031618
    3        2.00000         18.35031618
    4        2.00000         18.35031618
    5        2.00000         26.41735862
    6        2.00000         26.41735862
    7        2.00000         26.41735862
    8        2.00000         26.41735862
    9        2.00000         22.45348857
   10        2.00000         22.35986573
   11        2.00000         22.35986573
   12        2.00000         22.35986573
   13        2.00000         22.35986573
   14        2.00000         22.45348857
   15        2.00000         22.45348857
   16        2.00000         22.35986573
   17        2.00000         22.35986573
   18        2.00000         22.35986573
   19        2.00000         22.35986573
   20        2.00000         22.45348857
 
---OUTPUT-----------------------------------------------------------------------
 
 Cartesian coordinates (xcart) [bohr]
  4.59340000000000E-02  5.26601760000000E+00  5.77275000000000E+00
  2.65606600000000E+00  2.50951760000000E+00  5.77275000000000E+00
  2.74793400000000E+00  3.00348240000000E+00  1.92425000000000E+00
  5.35806600000000E+00  2.46982400000000E-01  1.92425000000000E+00
  0.00000000000000E+00  2.75650000000000E+00  0.00000000000000E+00
  0.00000000000000E+00  2.75650000000000E+00  3.84850000000000E+00
  2.70200000000000E+00  0.00000000000000E+00  0.00000000000000E+00
  2.70200000000000E+00  0.00000000000000E+00  3.84850000000000E+00
  4.22052400000000E-01  2.64293220000000E+00  1.92425000000000E+00
  1.12133000000000E+00  1.14725530000000E+00  4.16176790000000E+00
  1.12133000000000E+00  1.14725530000000E+00  7.38373210000000E+00
  1.58067000000000E+00  3.90375530000000E+00  7.38373210000000E+00
  1.58067000000000E+00  3.90375530000000E+00  4.16176790000000E+00
  2.27994760000000E+00  5.39943220000000E+00  1.92425000000000E+00
  3.12405240000000E+00  1.13567800000000E-01  5.77275000000000E+00
  3.82333000000000E+00  1.60924470000000E+00  3.53523210000000E+00
  3.82333000000000E+00  1.60924470000000E+00  3.13267900000000E-01
  4.28267000000000E+00  4.36574470000000E+00  3.13267900000000E-01
  4.28267000000000E+00  4.36574470000000E+00  3.53523210000000E+00
  4.98194760000000E+00  2.87006780000000E+00  5.77275000000000E+00
 Reduced coordinates (xred)
  8.50000000000000E-03  9.55200000000000E-01  7.50000000000000E-01
  4.91500000000000E-01  4.55200000000000E-01  7.50000000000000E-01
  5.08500000000000E-01  5.44800000000000E-01  2.50000000000000E-01
  9.91500000000000E-01  4.48000000000000E-02  2.50000000000000E-01
  0.00000000000000E+00  5.00000000000000E-01  0.00000000000000E+00
  0.00000000000000E+00  5.00000000000000E-01  5.00000000000000E-01
  5.00000000000000E-01  0.00000000000000E+00  0.00000000000000E+00
  5.00000000000000E-01  0.00000000000000E+00  5.00000000000000E-01
  7.81000000000000E-02  4.79400000000000E-01  2.50000000000000E-01
  2.07500000000000E-01  2.08100000000000E-01  5.40700000000000E-01
  2.07500000000000E-01  2.08100000000000E-01  9.59300000000000E-01
  2.92500000000000E-01  7.08100000000000E-01  9.59300000000000E-01
  2.92500000000000E-01  7.08100000000000E-01  5.40700000000000E-01
  4.21900000000000E-01  9.79400000000000E-01  2.50000000000000E-01
  5.78100000000000E-01  2.06000000000000E-02  7.50000000000000E-01
  7.07500000000000E-01  2.91900000000000E-01  4.59300000000000E-01
  7.07500000000000E-01  2.91900000000000E-01  4.07000000000000E-02
  7.92500000000000E-01  7.91900000000000E-01  4.07000000000000E-02
  7.92500000000000E-01  7.91900000000000E-01  4.59300000000000E-01
  9.21900000000000E-01  5.20600000000000E-01  7.50000000000000E-01
 Cartesian forces (fcart) [Ha/bohr]; max,rms= 5.98238E-01 1.83415E-01 (free atoms)
 -7.76036291210093E-02  5.98237717089506E-01  0.00000000000000E+00
  7.76036291210093E-02  5.98237717089506E-01  0.00000000000000E+00
 -7.76036291210093E-02 -5.98237717089506E-01  0.00000000000000E+00
  7.76036291210093E-02 -5.98237717089506E-01  0.00000000000000E+00
  0.00000000000000E+00  0.00000000000000E+00  0.00000000000000E+00
  0.00000000000000E+00  0.00000000000000E+00  0.00000000000000E+00
  0.00000000000000E+00  0.00000000000000E+00  0.00000000000000E+00
  0.00000000000000E+00  0.00000000000000E+00  0.00000000000000E+00
  1.85834941571383E-01  2.14100181267465E-01  0.00000000000000E+00
 -1.65815355120676E-01 -3.50776318177575E-02  3.79424530710754E-02
 -1.65815355120676E-01 -3.50776318177575E-02 -3.79424530710754E-02
  1.65815355120677E-01 -3.50776318177575E-02 -3.79424530710754E-02
  1.65815355120676E-01 -3.50776318177575E-02  3.79424530710754E-02
 -1.85834941571383E-01  2.14100181267465E-01 -2.04978798290506E-31
  1.85834941571383E-01 -2.14100181267465E-01  4.09957596581012E-31
 -1.65815355120676E-01  3.50776318177575E-02 -3.79424530710754E-02
 -1.65815355120677E-01  3.50776318177575E-02  3.79424530710754E-02
  1.65815355120676E-01  3.50776318177575E-02  3.79424530710754E-02
  1.65815355120676E-01  3.50776318177575E-02 -3.79424530710754E-02
 -1.85834941571383E-01 -2.14100181267465E-01  0.00000000000000E+00
 Reduced forces (fred)
  4.19370011769934E-01 -3.29808453431445E+00  0.00000000000000E+00
 -4.19370011769934E-01 -3.29808453431445E+00  0.00000000000000E+00
  4.19370011769934E-01  3.29808453431445E+00  0.00000000000000E+00
 -4.19370011769934E-01  3.29808453431445E+00  0.00000000000000E+00
  0.00000000000000E+00  0.00000000000000E+00  0.00000000000000E+00
  0.00000000000000E+00  0.00000000000000E+00  0.00000000000000E+00
  0.00000000000000E+00  0.00000000000000E+00  0.00000000000000E+00
  0.00000000000000E+00  0.00000000000000E+00  0.00000000000000E+00
 -1.00425202425175E+00 -1.18033429932754E+00  0.00000000000000E+00
  8.96066179072136E-01  1.93382984211297E-01 -2.92043061288068E-01
  8.96066179072136E-01  1.93382984211297E-01  2.92043061288068E-01
 -8.96066179072136E-01  1.93382984211297E-01  2.92043061288068E-01
 -8.96066179072136E-01  1.93382984211297E-01 -2.92043061288068E-01
  1.00425202425175E+00 -1.18033429932754E+00  1.57772181044202E-30
 -1.00425202425175E+00  1.18033429932754E+00 -3.15544362088405E-30
  8.96066179072136E-01 -1.93382984211297E-01  2.92043061288068E-01
  8.96066179072136E-01 -1.93382984211297E-01 -2.92043061288068E-01
 -8.96066179072136E-01 -1.93382984211297E-01 -2.92043061288068E-01
 -8.96066179072136E-01 -1.93382984211297E-01  2.92043061288068E-01
  1.00425202425175E+00  1.18033429932754E+00  0.00000000000000E+00
 Scale of Primitive Cell (acell) [bohr]
  5.40400000000000E+00  5.51300000000000E+00  7.69700000000000E+00
 Real space primitive translations (rprimd) [bohr]
  5.40400000000000E+00  0.00000000000000E+00  0.00000000000000E+00
  0.00000000000000E+00  5.51300000000000E+00  0.00000000000000E+00
  0.00000000000000E+00  0.00000000000000E+00  7.69700000000000E+00
 Unitary Cell Volume (ucvol) [Bohr^3]=  2.29310963644000E+02
 Angles (23,13,12)= [degrees]
  9.00000000000000E+01  9.00000000000000E+01  9.00000000000000E+01
 Lengths [Bohr]
  5.40400000000000E+00  5.51300000000000E+00  7.69700000000000E+00
 Stress tensor in cartesian coordinates (strten) [Ha/bohr^3]
 -3.40151272433540E-01  0.00000000000000E+00  0.00000000000000E+00
  0.00000000000000E+00 -3.32792234721461E-01  0.00000000000000E+00
  0.00000000000000E+00  0.00000000000000E+00 -3.47485382296652E-01
 Total energy (etotal) [Ha]= -5.38065955294457E+02
 
--- Iteration: ( 2/20) Internal Cycle: (1/1)
--------------------------------------------------------------------------------
 
---SELF-CONSISTENT-FIELD CONVERGENCE--------------------------------------------
 
     iter   Etot(hartree)      deltaE(h)  residm     vres2
