
.Version 8.11.13 of ABINIT 
.(MPI version, prepared for a x86_64_linux_intel14.0 computer) 

.Copyright (C) 1998-2019 ABINIT group . 
 ABINIT comes with ABSOLUTELY NO WARRANTY.
 It is free software, and you are welcome to redistribute it
 under certain conditions (GNU General Public License,
 see ~abinit/COPYING or http://www.gnu.org/copyleft/gpl.txt).

 ABINIT is a project of the Universite Catholique de Louvain,
 Corning Inc. and other collaborators, see ~abinit/doc/developers/contributors.txt .
 Please read https://docs.abinit.org/theory/acknowledgments for suggested
 acknowledgments of the ABINIT effort.
 For more information, see https://www.abinit.org .

.Starting date : Fri 13 Dec 2019.
- ( at 13h58 )
  
- input  file    -> sp.in
- output file    -> sp.out
- root for input  files -> spi
- root for output files -> spo
 
 
 Symmetries : space group Pn m a (# 62); Bravais oP (primitive ortho.)
================================================================================
 Values of the parameters that define the memory need of the present run
     intxc =       0    ionmov =       2      iscf =       7    lmnmax =       6
     lnmax =       6     mgfft =      36  mpssoang =       3    mqgrid =    3001
     natom =      20  nloc_mem =       1    nspden =       1   nspinor =       1
    nsppol =       1      nsym =       8    n1xccc =    2501    ntypat =       3
    occopt =       1   xclevel =       1
-    mband =          80        mffmem =           1         mkmem =           1
       mpw =        1132          nfft =       20736          nkpt =           1
================================================================================
P This job should need less than                       9.798 Mbytes of memory.
  Rough estimation (10% accuracy) of disk space for files :
_ WF disk file :      1.384 Mbytes ; DEN or POT disk file :      0.160 Mbytes.
================================================================================
 
--------------------------------------------------------------------------------
------------- Echo of variables that govern the present computation ------------
--------------------------------------------------------------------------------
-
- outvars: echo of selected default values                                      
-   iomode0 =  0 , fftalg0 =312 , wfoptalg0 =  0
-
- outvars: echo of global parameters not present in the input file              
-  max_nthreads =    0
-
 -outvars: echo values of preprocessed input variables --------
            acell      5.4040000000E+00  5.5130000000E+00  7.6970000000E+00 Bohr
              amu      4.00780000E+01  4.78800000E+01  1.59994000E+01
          dilatmx      1.05000000E+00
             ecut      2.00000000E+01 Hartree
           ecutsm      5.00000000E-01 Hartree
-          fftalg         312
           ionmov           2
              kpt      2.50000000E-01  2.50000000E-01  2.50000000E-01
         kptrlatt        2    0    0      0    2    0      0    0    2
          kptrlen      1.08080000E+01
P           mkmem           1
            natom          20
            nband          80
            ngfft          24      24      36
             nkpt           1
             nsym           8
           ntypat           3
              occ      2.000000  2.000000  2.000000  2.000000  2.000000  2.000000
                       2.000000  2.000000  2.000000  2.000000  2.000000  2.000000
                       2.000000  2.000000  2.000000  2.000000  2.000000  2.000000
                       2.000000  2.000000  2.000000  2.000000  2.000000  2.000000
                       2.000000  2.000000  2.000000  2.000000  2.000000  2.000000
                       2.000000  2.000000  2.000000  2.000000  2.000000  2.000000
                       2.000000  2.000000  2.000000  2.000000  2.000000  2.000000
                       2.000000  2.000000  2.000000  2.000000  2.000000  2.000000
                       2.000000  2.000000  2.000000  2.000000  2.000000  2.000000
                       2.000000  2.000000  2.000000  2.000000  2.000000  2.000000
                       2.000000  2.000000  2.000000  2.000000  2.000000  2.000000
                       2.000000  2.000000  2.000000  2.000000  2.000000  2.000000
                       2.000000  2.000000  2.000000  2.000000  2.000000  2.000000
                       2.000000  2.000000
          optcell           2
           shiftk      5.00000000E-01  5.00000000E-01  5.00000000E-01
          spgroup          62
           symrel      1  0  0   0  1  0   0  0  1      -1  0  0   0 -1  0   0  0 -1
                      -1  0  0   0  1  0   0  0 -1       1  0  0   0 -1  0   0  0  1
                      -1  0  0   0 -1  0   0  0  1       1  0  0   0  1  0   0  0 -1
                       1  0  0   0 -1  0   0  0 -1      -1  0  0   0  1  0   0  0  1
            tnons      0.0000000  0.0000000  0.0000000     0.0000000  0.0000000  0.0000000
                       0.5000000  0.5000000  0.5000000     0.5000000  0.5000000  0.5000000
                       0.0000000  0.0000000  0.5000000     0.0000000  0.0000000  0.5000000
                       0.5000000  0.5000000  0.0000000     0.5000000  0.5000000  0.0000000
           toldfe      1.00000000E-10 Hartree
            typat      1  1  1  1  2  2  2  2  3  3  3  3  3  3  3  3  3  3  3  3
           xangst      2.4307225899E-02  2.7866564940E+00  3.0548077309E+00
                       1.4055295917E+00  1.3279795185E+00  3.0548077309E+00
                       1.4541440435E+00  1.5893744325E+00  1.0182692436E+00
                       2.8353664093E+00  1.3069745700E-01  1.0182692436E+00
                       0.0000000000E+00  1.4586769755E+00  0.0000000000E+00
                       0.0000000000E+00  1.4586769755E+00  2.0365384873E+00
                       1.4298368176E+00  0.0000000000E+00  0.0000000000E+00
                       1.4298368176E+00  0.0000000000E+00  2.0365384873E+00
                       2.2334051091E-01  1.3985794841E+00  1.0182692436E+00
                       5.9338227931E-01  6.0710135719E-01  2.2023127201E+00
                       5.9338227931E-01  6.0710135719E-01  3.9073027417E+00
                       8.3645453830E-01  2.0657783327E+00  3.9073027417E+00
                       8.3645453830E-01  2.0657783327E+00  2.2023127201E+00
                       1.2064963067E+00  2.8572564596E+00  1.0182692436E+00
                       1.6531773285E+00  6.0097491390E-02  3.0548077309E+00
                       2.0232190969E+00  8.5157561828E-01  1.8707642544E+00
                       2.0232190969E+00  8.5157561828E-01  1.6577423286E-01
                       2.2662913559E+00  2.3102525938E+00  1.6577423286E-01
                       2.2662913559E+00  2.3102525938E+00  1.8707642544E+00
                       2.6363331243E+00  1.5187744669E+00  3.0548077309E+00
            xcart      4.5934000000E-02  5.2660176000E+00  5.7727500000E+00
                       2.6560660000E+00  2.5095176000E+00  5.7727500000E+00
                       2.7479340000E+00  3.0034824000E+00  1.9242500000E+00
                       5.3580660000E+00  2.4698240000E-01  1.9242500000E+00
                       0.0000000000E+00  2.7565000000E+00  0.0000000000E+00
                       0.0000000000E+00  2.7565000000E+00  3.8485000000E+00
                       2.7020000000E+00  0.0000000000E+00  0.0000000000E+00
                       2.7020000000E+00  0.0000000000E+00  3.8485000000E+00
                       4.2205240000E-01  2.6429322000E+00  1.9242500000E+00
                       1.1213300000E+00  1.1472553000E+00  4.1617679000E+00
                       1.1213300000E+00  1.1472553000E+00  7.3837321000E+00
                       1.5806700000E+00  3.9037553000E+00  7.3837321000E+00
                       1.5806700000E+00  3.9037553000E+00  4.1617679000E+00
                       2.2799476000E+00  5.3994322000E+00  1.9242500000E+00
                       3.1240524000E+00  1.1356780000E-01  5.7727500000E+00
                       3.8233300000E+00  1.6092447000E+00  3.5352321000E+00
                       3.8233300000E+00  1.6092447000E+00  3.1326790000E-01
                       4.2826700000E+00  4.3657447000E+00  3.1326790000E-01
                       4.2826700000E+00  4.3657447000E+00  3.5352321000E+00
                       4.9819476000E+00  2.8700678000E+00  5.7727500000E+00
             xred      8.5000000000E-03  9.5520000000E-01  7.5000000000E-01
                       4.9150000000E-01  4.5520000000E-01  7.5000000000E-01
                       5.0850000000E-01  5.4480000000E-01  2.5000000000E-01
                       9.9150000000E-01  4.4800000000E-02  2.5000000000E-01
                       0.0000000000E+00  5.0000000000E-01  0.0000000000E+00
                       0.0000000000E+00  5.0000000000E-01  5.0000000000E-01
                       5.0000000000E-01  0.0000000000E+00  0.0000000000E+00
                       5.0000000000E-01  0.0000000000E+00  5.0000000000E-01
                       7.8100000000E-02  4.7940000000E-01  2.5000000000E-01
                       2.0750000000E-01  2.0810000000E-01  5.4070000000E-01
                       2.0750000000E-01  2.0810000000E-01  9.5930000000E-01
                       2.9250000000E-01  7.0810000000E-01  9.5930000000E-01
                       2.9250000000E-01  7.0810000000E-01  5.4070000000E-01
                       4.2190000000E-01  9.7940000000E-01  2.5000000000E-01
                       5.7810000000E-01  2.0600000000E-02  7.5000000000E-01
                       7.0750000000E-01  2.9190000000E-01  4.5930000000E-01
                       7.0750000000E-01  2.9190000000E-01  4.0700000000E-02
                       7.9250000000E-01  7.9190000000E-01  4.0700000000E-02
                       7.9250000000E-01  7.9190000000E-01  4.5930000000E-01
                       9.2190000000E-01  5.2060000000E-01  7.5000000000E-01
            znucl       20.00000   22.00000    8.00000
 
================================================================================
 
 chkinp: Checking input parameters for consistency.
 
================================================================================
== DATASET  1 ==================================================================
-   nproc =   16   -> not optimal: autoparal keyword recommended in input file
 
 Exchange-correlation functional for the present dataset will be:
  LDA: new Teter (4/93) with spin-polarized option - ixc=1
 Citation for XC functional:
  S. Goedecker, M. Teter, J. Huetter, PRB 54, 1703 (1996)
 
 Real(R)+Recip(G) space primitive vectors, cartesian coordinates (Bohr,Bohr^-1):
 R(1)=  5.4040000  0.0000000  0.0000000  G(1)=  0.1850481  0.0000000  0.0000000
 R(2)=  0.0000000  5.5130000  0.0000000  G(2)=  0.0000000  0.1813894  0.0000000
 R(3)=  0.0000000  0.0000000  7.6970000  G(3)=  0.0000000  0.0000000  0.1299207
 Unit cell volume ucvol=  2.2931096E+02 bohr^3
 Angles (23,13,12)=  9.00000000E+01  9.00000000E+01  9.00000000E+01 degrees
 
 getcut: wavevector=  0.0000  0.0000  0.0000  ngfft=  24  24  36
         ecut(hartree)=     22.050   => boxcut(ratio)=   2.05946
 
--- Pseudopotential description ------------------------------------------------
- pspini: atom type   1  psp file is /CECI/home/ucl/naps/jovbever/.PsP/CTO/Ca.psp8
- pspatm: opening atomic psp file    /CECI/home/ucl/naps/jovbever/.PsP/CTO/Ca.psp8
- Ca    ONCVPSP-3.2.3.1  r_core=   1.45885   1.45885   1.85192
- 20.00000  10.00000    170504                znucl, zion, pspdat
    8   11    2    4       400   0.00000      pspcod,pspxc,lmax,lloc,mmax,r2well
    3.99000000000000    6.00000000000000    0.00000000000000   rchrg,fchrg,qchrg
     nproj     2     2     2
     extension_switch     1
  pspatm : epsatm=   12.33414111
         --- l  ekb(1:nproj) -->
             0   10.063789    0.972391
             1    3.049878    0.471799
             2   -3.406671   -1.078890
 pspatm: atomic psp has been read  and splines computed
 
- pspini: atom type   2  psp file is /CECI/home/ucl/naps/jovbever/.PsP/CTO/Ti.psp8
- pspatm: opening atomic psp file    /CECI/home/ucl/naps/jovbever/.PsP/CTO/Ti.psp8
- Ti    ONCVPSP-3.2.3.1  r_core=   1.35825   1.31050   1.66360
- 22.00000  12.00000    170504                znucl, zion, pspdat
    8   11    2    4       600   0.00000      pspcod,pspxc,lmax,lloc,mmax,r2well
    5.99000000000000    2.50000000000000    0.00000000000000   rchrg,fchrg,qchrg
     nproj     2     2     2
     extension_switch     1
  pspatm : epsatm=   14.68144390
         --- l  ekb(1:nproj) -->
             0   11.362348    1.263639
             1    1.975402   -0.084666
             2   -5.186090   -1.477451
 pspatm: atomic psp has been read  and splines computed
 
- pspini: atom type   3  psp file is /CECI/home/ucl/naps/jovbever/.PsP/CTO/O.psp8
- pspatm: opening atomic psp file    /CECI/home/ucl/naps/jovbever/.PsP/CTO/O.psp8
- O     ONCVPSP-3.2.3.1  r_core=   1.35509   1.45563   1.26150
-  8.00000   6.00000    170504                znucl, zion, pspdat
    8   11    2    4       600   0.00000      pspcod,pspxc,lmax,lloc,mmax,r2well
    5.99000000000000    4.00000000000000    0.00000000000000   rchrg,fchrg,qchrg
     nproj     2     2     1
     extension_switch     1
  pspatm : epsatm=    6.19546011
         --- l  ekb(1:nproj) -->
             0    6.056735    0.824024
             1   -4.717130   -1.149271
             2   -1.331955
 pspatm: atomic psp has been read  and splines computed
 
   2.91852578E+04                                ecore*ucvol(ha*bohr**3)
--------------------------------------------------------------------------------
 
_setup2: Arith. and geom. avg. npw (full set) are    1132.000    1132.000
 
================================================================================
 
=== [ionmov= 2] Broyden-Fletcher-Goldfard-Shanno method (forces)            
================================================================================
 
--- Iteration: (1/1) Internal Cycle: (1/1)
--------------------------------------------------------------------------------
 
---SELF-CONSISTENT-FIELD CONVERGENCE--------------------------------------------
 
     iter   Etot(hartree)      deltaE(h)  residm     vres2
 ETOT  1  -533.10177131232    -5.331E+02 2.484E-01 2.068E+02
 ETOT  2  -534.42983868388    -1.328E+00 1.216E-02 4.474E+01
 ETOT  3  -534.53670000201    -1.069E-01 6.112E-03 9.275E+00
 ETOT  4  -534.59590754365    -5.921E-02 6.644E-03 3.120E-01
 ETOT  5  -534.63748317812    -4.158E-02 6.093E-03 4.186E-01
 ETOT  6  -534.67155196940    -3.407E-02 5.906E-03 5.109E-02
 ETOT  7  -534.69671093032    -2.516E-02 4.316E-03 1.460E-01
 ETOT  8  -534.71363534861    -1.692E-02 3.423E-03 3.849E-01
 ETOT  9  -534.72448235243    -1.085E-02 1.963E-03 4.313E-01
 ETOT 10  -534.73069203524    -6.210E-03 1.477E-03 9.315E-01
 ETOT 11  -534.73444775995    -3.756E-03 7.805E-04 1.220E+00
 ETOT 12  -534.73648178393    -2.034E-03 5.965E-04 1.622E+00
 ETOT 13  -534.73776107372    -1.279E-03 3.066E-04 1.778E+00
 ETOT 14  -534.73835329019    -5.922E-04 2.450E-04 2.074E+00
 ETOT 15  -534.73920222307    -8.489E-04 1.173E-04 1.594E+00
 ETOT 16  -534.73799370081     1.209E-03 1.510E-04 3.809E+00
 ETOT 17  -534.73795779052     3.591E-05 5.934E-05 4.190E+00
 ETOT 18  -534.73744267267     5.151E-04 6.656E-05 4.971E+00
 ETOT 19  -534.73965223338    -2.210E-03 2.391E-05 1.973E+00
 ETOT 20  -534.74003022261    -3.780E-04 2.854E-05 1.506E+00
 ETOT 21  -534.74084548206    -8.153E-04 6.843E-06 3.659E-01
 ETOT 22  -534.74114016103    -2.947E-04 1.560E-05 5.953E-03
 ETOT 23  -534.74115977377    -1.961E-05 3.052E-06 4.552E-03
 ETOT 24  -534.74117334494    -1.357E-05 4.371E-06 1.499E-03
 ETOT 25  -534.74118047583    -7.131E-06 1.250E-06 1.366E-03
 ETOT 26  -534.74118617848    -5.703E-06 1.900E-06 2.345E-05
 ETOT 27  -534.74118948771    -3.309E-06 6.230E-07 6.957E-06
 ETOT 28  -534.74119180618    -2.318E-06 9.491E-07 3.393E-06
 ETOT 29  -534.74119346653    -1.660E-06 3.233E-07 9.610E-06
 ETOT 30  -534.74119465568    -1.189E-06 5.077E-07 2.931E-05
 
 Cartesian components of stress tensor (hartree/bohr^3)
  sigma(1 1)= -3.58256541E-01  sigma(3 2)=  0.00000000E+00
  sigma(2 2)= -3.44027575E-01  sigma(3 1)=  0.00000000E+00
  sigma(3 3)= -3.49875121E-01  sigma(2 1)=  0.00000000E+00
 
 
 scprqt:  WARNING -
  nstep=   30 was not enough SCF cycles to converge;
  maximum energy difference=  1.189E-06 exceeds toldfe=  1.000E-10
 
 Integrated electronic density in atomic spheres:
 ------------------------------------------------
 Atom  Sphere_radius  Integrated_density
    1        2.00000         18.54095462
    2        2.00000         18.54095462
    3        2.00000         18.54095462
    4        2.00000         18.54095462
    5        2.00000         26.51382682
    6        2.00000         26.51382682
    7        2.00000         26.51382682
    8        2.00000         26.51382682
    9        2.00000         22.20898836
   10        2.00000         22.37916733
   11        2.00000         22.37916733
   12        2.00000         22.37916733
   13        2.00000         22.37916733
   14        2.00000         22.20898836
   15        2.00000         22.20898836
   16        2.00000         22.37916733
   17        2.00000         22.37916733
   18        2.00000         22.37916733
   19        2.00000         22.37916733
   20        2.00000         22.20898836
 
---OUTPUT-----------------------------------------------------------------------
 
 Cartesian coordinates (xcart) [bohr]
  4.59340000000000E-02  5.26601760000000E+00  5.77275000000000E+00
  2.65606600000000E+00  2.50951760000000E+00  5.77275000000000E+00
  2.74793400000000E+00  3.00348240000000E+00  1.92425000000000E+00
  5.35806600000000E+00  2.46982400000000E-01  1.92425000000000E+00
  0.00000000000000E+00  2.75650000000000E+00  0.00000000000000E+00
  0.00000000000000E+00  2.75650000000000E+00  3.84850000000000E+00
  2.70200000000000E+00  0.00000000000000E+00  0.00000000000000E+00
  2.70200000000000E+00  0.00000000000000E+00  3.84850000000000E+00
  4.22052400000000E-01  2.64293220000000E+00  1.92425000000000E+00
  1.12133000000000E+00  1.14725530000000E+00  4.16176790000000E+00
  1.12133000000000E+00  1.14725530000000E+00  7.38373210000000E+00
  1.58067000000000E+00  3.90375530000000E+00  7.38373210000000E+00
  1.58067000000000E+00  3.90375530000000E+00  4.16176790000000E+00
  2.27994760000000E+00  5.39943220000000E+00  1.92425000000000E+00
  3.12405240000000E+00  1.13567800000000E-01  5.77275000000000E+00
  3.82333000000000E+00  1.60924470000000E+00  3.53523210000000E+00
  3.82333000000000E+00  1.60924470000000E+00  3.13267900000000E-01
  4.28267000000000E+00  4.36574470000000E+00  3.13267900000000E-01
  4.28267000000000E+00  4.36574470000000E+00  3.53523210000000E+00
  4.98194760000000E+00  2.87006780000000E+00  5.77275000000000E+00
 Reduced coordinates (xred)
  8.50000000000000E-03  9.55200000000000E-01  7.50000000000000E-01
  4.91500000000000E-01  4.55200000000000E-01  7.50000000000000E-01
  5.08500000000000E-01  5.44800000000000E-01  2.50000000000000E-01
  9.91500000000000E-01  4.48000000000000E-02  2.50000000000000E-01
  0.00000000000000E+00  5.00000000000000E-01  0.00000000000000E+00
  0.00000000000000E+00  5.00000000000000E-01  5.00000000000000E-01
  5.00000000000000E-01  0.00000000000000E+00  0.00000000000000E+00
  5.00000000000000E-01  0.00000000000000E+00  5.00000000000000E-01
  7.81000000000000E-02  4.79400000000000E-01  2.50000000000000E-01
  2.07500000000000E-01  2.08100000000000E-01  5.40700000000000E-01
  2.07500000000000E-01  2.08100000000000E-01  9.59300000000000E-01
  2.92500000000000E-01  7.08100000000000E-01  9.59300000000000E-01
  2.92500000000000E-01  7.08100000000000E-01  5.40700000000000E-01
  4.21900000000000E-01  9.79400000000000E-01  2.50000000000000E-01
  5.78100000000000E-01  2.06000000000000E-02  7.50000000000000E-01
  7.07500000000000E-01  2.91900000000000E-01  4.59300000000000E-01
  7.07500000000000E-01  2.91900000000000E-01  4.07000000000000E-02
  7.92500000000000E-01  7.91900000000000E-01  4.07000000000000E-02
  7.92500000000000E-01  7.91900000000000E-01  4.59300000000000E-01
  9.21900000000000E-01  5.20600000000000E-01  7.50000000000000E-01
 Cartesian forces (fcart) [Ha/bohr]; max,rms= 5.97134E-01 1.87558E-01 (free atoms)
 -7.88030524973558E-02  5.97133663206588E-01  0.00000000000000E+00
  7.88030524973558E-02  5.97133663206588E-01  0.00000000000000E+00
 -7.88030524973558E-02 -5.97133663206588E-01  0.00000000000000E+00
  7.88030524973558E-02 -5.97133663206588E-01  0.00000000000000E+00
 -1.38777878078145E-18 -5.55111512312578E-18  0.00000000000000E+00
 -1.38777878078145E-18 -5.55111512312578E-18  0.00000000000000E+00
 -1.38777878078145E-18 -5.55111512312578E-18  0.00000000000000E+00
 -1.38777878078145E-18 -5.55111512312578E-18  0.00000000000000E+00
  2.00996384918042E-01  2.04445013088090E-01  0.00000000000000E+00
 -1.78423917113665E-01 -5.54429011263435E-02  8.02427761944613E-02
 -1.78423917113665E-01 -5.54429011263435E-02 -8.02427761944613E-02
  1.78423917113665E-01 -5.54429011263435E-02 -8.02427761944613E-02
  1.78423917113665E-01 -5.54429011263435E-02  8.02427761944613E-02
 -2.00996384918042E-01  2.04445013088090E-01  2.04978798290506E-31
  2.00996384918042E-01 -2.04445013088090E-01  0.00000000000000E+00
 -1.78423917113665E-01  5.54429011263435E-02 -8.02427761944613E-02
 -1.78423917113665E-01  5.54429011263435E-02  8.02427761944613E-02
  1.78423917113665E-01  5.54429011263435E-02  8.02427761944613E-02
  1.78423917113665E-01  5.54429011263435E-02 -8.02427761944613E-02
 -2.00996384918042E-01 -2.04445013088090E-01  0.00000000000000E+00
 Reduced forces (fred)
  4.25851695695711E-01 -3.29199788525792E+00  0.00000000000000E+00
 -4.25851695695711E-01 -3.29199788525792E+00  0.00000000000000E+00
  4.25851695695711E-01  3.29199788525792E+00  0.00000000000000E+00
 -4.25851695695711E-01  3.29199788525792E+00  0.00000000000000E+00
  7.49955653134293E-18  3.06032976737924E-17  0.00000000000000E+00
  7.49955653134293E-18  3.06032976737924E-17  0.00000000000000E+00
  7.49955653134293E-18  3.06032976737924E-17  0.00000000000000E+00
  7.49955653134293E-18  3.06032976737924E-17  0.00000000000000E+00
 -1.08618446409710E+00 -1.12710535715464E+00  0.00000000000000E+00
  9.64202848082246E-01  3.05656713909532E-01 -6.17628648368768E-01
  9.64202848082246E-01  3.05656713909532E-01  6.17628648368769E-01
 -9.64202848082246E-01  3.05656713909532E-01  6.17628648368768E-01
 -9.64202848082246E-01  3.05656713909532E-01 -6.17628648368769E-01
  1.08618446409710E+00 -1.12710535715464E+00 -1.57772181044202E-30
 -1.08618446409710E+00  1.12710535715464E+00  0.00000000000000E+00
  9.64202848082246E-01 -3.05656713909532E-01  6.17628648368769E-01
  9.64202848082246E-01 -3.05656713909532E-01 -6.17628648368769E-01
 -9.64202848082246E-01 -3.05656713909532E-01 -6.17628648368769E-01
 -9.64202848082246E-01 -3.05656713909532E-01  6.17628648368769E-01
  1.08618446409710E+00  1.12710535715464E+00  0.00000000000000E+00
 Scale of Primitive Cell (acell) [bohr]
  5.40400000000000E+00  5.51300000000000E+00  7.69700000000000E+00
 Real space primitive translations (rprimd) [bohr]
  5.40400000000000E+00  0.00000000000000E+00  0.00000000000000E+00
  0.00000000000000E+00  5.51300000000000E+00  0.00000000000000E+00
  0.00000000000000E+00  0.00000000000000E+00  7.69700000000000E+00
 Unitary Cell Volume (ucvol) [Bohr^3]=  2.29310963644000E+02
 Angles (23,13,12)= [degrees]
  9.00000000000000E+01  9.00000000000000E+01  9.00000000000000E+01
 Lengths [Bohr]
  5.40400000000000E+00  5.51300000000000E+00  7.69700000000000E+00
 Stress tensor in cartesian coordinates (strten) [Ha/bohr^3]
 -3.58256540585260E-01  0.00000000000000E+00  0.00000000000000E+00
  0.00000000000000E+00 -3.44027574557244E-01  0.00000000000000E+00
  0.00000000000000E+00  0.00000000000000E+00 -3.49875120712046E-01
 Total energy (etotal) [Ha]= -5.34741194655684E+02
 
 fconv : WARNING -
  ntime=    1 was not enough Broyd/MD steps to converge gradients: 
  max grad (force/stress) = 3.5826E+01 > tolmxf= 5.0000E-05 ha/bohr (free atoms)
 
================================================================================
 
 ----iterations are completed or convergence reached----
 
 Mean square residual over all n,k,spin=   63.657E-10; max=  50.770E-08
 reduced coordinates (array xred) for   20 atoms
       0.008500000000      0.955200000000      0.750000000000
       0.491500000000      0.455200000000      0.750000000000
       0.508500000000      0.544800000000      0.250000000000
       0.991500000000      0.044800000000      0.250000000000
       0.000000000000      0.500000000000      0.000000000000
       0.000000000000      0.500000000000      0.500000000000
       0.500000000000      0.000000000000      0.000000000000
       0.500000000000      0.000000000000      0.500000000000
       0.078100000000      0.479400000000      0.250000000000
       0.207500000000      0.208100000000      0.540700000000
       0.207500000000      0.208100000000      0.959300000000
       0.292500000000      0.708100000000      0.959300000000
       0.292500000000      0.708100000000      0.540700000000
       0.421900000000      0.979400000000      0.250000000000
       0.578100000000      0.020600000000      0.750000000000
       0.707500000000      0.291900000000      0.459300000000
       0.707500000000      0.291900000000      0.040700000000
       0.792500000000      0.791900000000      0.040700000000
       0.792500000000      0.791900000000      0.459300000000
       0.921900000000      0.520600000000      0.750000000000
 rms dE/dt=  1.0417E+00; max dE/dt=  3.2920E+00; dE/dt below (all hartree)
    1       0.425851695696     -3.291997885258      0.000000000000
    2      -0.425851695696     -3.291997885258      0.000000000000
    3       0.425851695696      3.291997885258      0.000000000000
    4      -0.425851695696      3.291997885258      0.000000000000
    5       0.000000000000      0.000000000000      0.000000000000
    6       0.000000000000      0.000000000000      0.000000000000
    7       0.000000000000      0.000000000000      0.000000000000
    8       0.000000000000      0.000000000000      0.000000000000
    9      -1.086184464097     -1.127105357155      0.000000000000
   10       0.964202848082      0.305656713910     -0.617628648369
   11       0.964202848082      0.305656713910      0.617628648369
   12      -0.964202848082      0.305656713910      0.617628648369
   13      -0.964202848082      0.305656713910     -0.617628648369
   14       1.086184464097     -1.127105357155     -0.000000000000
   15      -1.086184464097      1.127105357155      0.000000000000
   16       0.964202848082     -0.305656713910      0.617628648369
   17       0.964202848082     -0.305656713910     -0.617628648369
   18      -0.964202848082     -0.305656713910     -0.617628648369
   19      -0.964202848082     -0.305656713910      0.617628648369
   20       1.086184464097      1.127105357155      0.000000000000
 
 cartesian coordinates (angstrom) at end:
    1      0.02430722589937     2.78665649395381     3.05480773088792
    2      1.40552959171081     1.32797951847548     3.05480773088792
    3      1.45414404350955     1.58937443248119     1.01826924362931
    4      2.83536640932099     0.13069745700286     1.01826924362931
    5      0.00000000000000     1.45867697547834     0.00000000000000
    6      0.00000000000000     1.45867697547834     2.03653848725861
    7      1.42983681761018     0.00000000000000     0.00000000000000
    8      1.42983681761018     0.00000000000000     2.03653848725861
    9      0.22334051091071     1.39857948408863     1.01826924362931
   10      0.59338227930822     0.60710135719408     2.20231272012147
   11      0.59338227930822     0.60710135719408     3.90730274165438
   12      0.83645453830196     2.06577833267242     3.90730274165438
   13      0.83645453830196     2.06577833267242     2.20231272012147
   14      1.20649630669947     2.85725645956696     1.01826924362931
   15      1.65317732852089     0.06009749138971     3.05480773088792
   16      2.02321909691840     0.85157561828425     1.87076425439576
   17      2.02321909691840     0.85157561828425     0.16577423286285
   18      2.26629135591213     2.31025259376259     0.16577423286285
   19      2.26629135591213     2.31025259376259     1.87076425439576
   20      2.63633312430965     1.51877446686804     3.05480773088792
 
 cartesian forces (hartree/bohr) at end:
    1     -0.07880305249736     0.59713366320659     0.00000000000000
    2      0.07880305249736     0.59713366320659     0.00000000000000
    3     -0.07880305249736    -0.59713366320659     0.00000000000000
    4      0.07880305249736    -0.59713366320659     0.00000000000000
    5     -0.00000000000000    -0.00000000000000     0.00000000000000
    6     -0.00000000000000    -0.00000000000000     0.00000000000000
    7     -0.00000000000000    -0.00000000000000     0.00000000000000
    8     -0.00000000000000    -0.00000000000000     0.00000000000000
    9      0.20099638491804     0.20444501308809     0.00000000000000
   10     -0.17842391711367    -0.05544290112634     0.08024277619446
   11     -0.17842391711367    -0.05544290112634    -0.08024277619446
   12      0.17842391711367    -0.05544290112634    -0.08024277619446
   13      0.17842391711367    -0.05544290112634     0.08024277619446
   14     -0.20099638491804     0.20444501308809     0.00000000000000
   15      0.20099638491804    -0.20444501308809     0.00000000000000
   16     -0.17842391711367     0.05544290112634    -0.08024277619446
   17     -0.17842391711367     0.05544290112634     0.08024277619446
   18      0.17842391711367     0.05544290112634     0.08024277619446
   19      0.17842391711367     0.05544290112634    -0.08024277619446
   20     -0.20099638491804    -0.20444501308809     0.00000000000000
 frms,max,avg= 1.8755829E-01 5.9713366E-01   0.000E+00  0.000E+00  0.000E+00 h/b
 
 cartesian forces (eV/Angstrom) at end:
    1     -4.05221554525922    30.70584496361375     0.00000000000000
    2      4.05221554525922    30.70584496361374     0.00000000000000
    3     -4.05221554525922   -30.70584496361374     0.00000000000000
    4      4.05221554525922   -30.70584496361375     0.00000000000000
    5     -0.00000000000000    -0.00000000000000     0.00000000000000
    6     -0.00000000000000    -0.00000000000000     0.00000000000000
    7     -0.00000000000000    -0.00000000000000     0.00000000000000
    8     -0.00000000000000    -0.00000000000000     0.00000000000000
    9     10.33564880666424    10.51298438235096     0.00000000000000
   10     -9.17492594082313    -2.85098836527910     4.12624910819112
   11     -9.17492594082313    -2.85098836527910    -4.12624910819113
   12      9.17492594082313    -2.85098836527910    -4.12624910819112
   13      9.17492594082313    -2.85098836527910     4.12624910819113
   14    -10.33564880666424    10.51298438235096     0.00000000000000
   15     10.33564880666424   -10.51298438235096     0.00000000000000
   16     -9.17492594082313     2.85098836527910    -4.12624910819113
   17     -9.17492594082313     2.85098836527910     4.12624910819113
   18      9.17492594082313     2.85098836527910     4.12624910819113
   19      9.17492594082313     2.85098836527910    -4.12624910819113
   20    -10.33564880666424   -10.51298438235096     0.00000000000000
 frms,max,avg= 9.6446341E+00 3.0705845E+01   0.000E+00  0.000E+00  0.000E+00 e/A
 length scales=  5.404000000000  5.513000000000  7.697000000000 bohr
              =  2.859673635220  2.917353950957  4.073076974517 angstroms
 prteigrs : about to open file spo_EIG
 Fermi (or HOMO) energy (hartree) =   2.41594   Average Vxc (hartree)=  -0.94688
 Eigenvalues (hartree) for nkpt=   1  k points:
 kpt#   1, nband= 80, wtk=  1.00000, kpt=  0.2500  0.2500  0.2500 (reduced coord)
  -0.83403   -0.77358   -0.75231   -0.70889   -0.29899   -0.28345   -0.19447   -0.19225
  -0.14303   -0.11660   -0.07755   -0.04141   -0.02221    0.03106    0.03888    0.08249
   0.20893    0.32679    0.34041    0.46479    0.48295    0.51864    0.58833    0.63446
   0.67311    0.68063    0.70991    0.76328    0.78205    0.80685    0.82409    0.84650
   0.84932    0.88938    0.93291    0.96453    0.98995    1.02236    1.04930    1.06369
   1.14417    1.17254    1.20974    1.24084    1.26579    1.32175    1.36013    1.39569
   1.42491    1.46502    1.49396    1.55096    1.61010    1.62883    1.68829    1.71353
   1.73748    1.79829    1.80874    1.82608    1.83513    1.89827    1.91478    1.93824
   1.95125    2.01145    2.03248    2.09665    2.13108    2.17005    2.19784    2.22569
   2.23469    2.26509    2.28014    2.28933    2.30371    2.32803    2.38278    2.41594
 
--------------------------------------------------------------------------------
 Components of total free energy (in Hartree) :
 
    Kinetic energy  =  4.52281765004331E+02
    Hartree energy  =  3.26078804342459E+01
    XC energy       = -1.44891682204974E+02
    Ewald energy    = -8.20595119615796E+02
    PspCore energy  =  1.27273713193440E+02
    Loc. psp. energy= -1.34477232095082E+02
    NL   psp  energy= -4.69405193718482E+01
    >>>>>>>>> Etotal= -5.34741194655684E+02
 
 Other information on the energy :
    Total energy(eV)= -1.45510479135308E+04 ; Band energy (Ha)=   1.7177255172E+02
--------------------------------------------------------------------------------
 
 
 
 Cartesian components of stress tensor (hartree/bohr^3)
  sigma(1 1)= -3.58256541E-01  sigma(3 2)=  0.00000000E+00
  sigma(2 2)= -3.44027575E-01  sigma(3 1)=  0.00000000E+00
  sigma(3 3)= -3.49875121E-01  sigma(2 1)=  0.00000000E+00
 
-Cartesian components of stress tensor (GPa)         [Pressure=  1.0319E+04 GPa]
- sigma(1 1)= -1.05402696E+04  sigma(3 2)=  0.00000000E+00
- sigma(2 2)= -1.01216390E+04  sigma(3 1)=  0.00000000E+00
- sigma(3 3)= -1.02936797E+04  sigma(2 1)=  0.00000000E+00
 
== END DATASET(S) ==============================================================
================================================================================
  
 -outvars: echo values of variables after computation  --------
            acell      5.4040000000E+00  5.5130000000E+00  7.6970000000E+00 Bohr
              amu      4.00780000E+01  4.78800000E+01  1.59994000E+01
          dilatmx      1.05000000E+00
             ecut      2.00000000E+01 Hartree
           ecutsm      5.00000000E-01 Hartree
           etotal     -5.3474119466E+02
            fcart     -7.8803052497E-02  5.9713366321E-01  0.0000000000E+00
                       7.8803052497E-02  5.9713366321E-01  0.0000000000E+00
                      -7.8803052497E-02 -5.9713366321E-01  0.0000000000E+00
                       7.8803052497E-02 -5.9713366321E-01  0.0000000000E+00
                      -1.3877787808E-18 -5.5511151231E-18  0.0000000000E+00
                      -1.3877787808E-18 -5.5511151231E-18  0.0000000000E+00
                      -1.3877787808E-18 -5.5511151231E-18  0.0000000000E+00
                      -1.3877787808E-18 -5.5511151231E-18  0.0000000000E+00
                       2.0099638492E-01  2.0444501309E-01  0.0000000000E+00
                      -1.7842391711E-01 -5.5442901126E-02  8.0242776194E-02
                      -1.7842391711E-01 -5.5442901126E-02 -8.0242776194E-02
                       1.7842391711E-01 -5.5442901126E-02 -8.0242776194E-02
                       1.7842391711E-01 -5.5442901126E-02  8.0242776194E-02
                      -2.0099638492E-01  2.0444501309E-01  2.0497879829E-31
                       2.0099638492E-01 -2.0444501309E-01  0.0000000000E+00
                      -1.7842391711E-01  5.5442901126E-02 -8.0242776194E-02
                      -1.7842391711E-01  5.5442901126E-02  8.0242776194E-02
                       1.7842391711E-01  5.5442901126E-02  8.0242776194E-02
                       1.7842391711E-01  5.5442901126E-02 -8.0242776194E-02
                      -2.0099638492E-01 -2.0444501309E-01  0.0000000000E+00
-          fftalg         312
           ionmov           2
              kpt      2.50000000E-01  2.50000000E-01  2.50000000E-01
         kptrlatt        2    0    0      0    2    0      0    0    2
          kptrlen      1.08080000E+01
P           mkmem           1
            natom          20
            nband          80
            ngfft          24      24      36
             nkpt           1
             nsym           8
           ntypat           3
              occ      2.000000  2.000000  2.000000  2.000000  2.000000  2.000000
                       2.000000  2.000000  2.000000  2.000000  2.000000  2.000000
                       2.000000  2.000000  2.000000  2.000000  2.000000  2.000000
                       2.000000  2.000000  2.000000  2.000000  2.000000  2.000000
                       2.000000  2.000000  2.000000  2.000000  2.000000  2.000000
                       2.000000  2.000000  2.000000  2.000000  2.000000  2.000000
                       2.000000  2.000000  2.000000  2.000000  2.000000  2.000000
                       2.000000  2.000000  2.000000  2.000000  2.000000  2.000000
                       2.000000  2.000000  2.000000  2.000000  2.000000  2.000000
                       2.000000  2.000000  2.000000  2.000000  2.000000  2.000000
                       2.000000  2.000000  2.000000  2.000000  2.000000  2.000000
                       2.000000  2.000000  2.000000  2.000000  2.000000  2.000000
                       2.000000  2.000000  2.000000  2.000000  2.000000  2.000000
                       2.000000  2.000000
          optcell           2
           shiftk      5.00000000E-01  5.00000000E-01  5.00000000E-01
          spgroup          62
           strten     -3.5825654059E-01 -3.4402757456E-01 -3.4987512071E-01
                       0.0000000000E+00  0.0000000000E+00  0.0000000000E+00
           symrel      1  0  0   0  1  0   0  0  1      -1  0  0   0 -1  0   0  0 -1
                      -1  0  0   0  1  0   0  0 -1       1  0  0   0 -1  0   0  0  1
                      -1  0  0   0 -1  0   0  0  1       1  0  0   0  1  0   0  0 -1
                       1  0  0   0 -1  0   0  0 -1      -1  0  0   0  1  0   0  0  1
            tnons      0.0000000  0.0000000  0.0000000     0.0000000  0.0000000  0.0000000
                       0.5000000  0.5000000  0.5000000     0.5000000  0.5000000  0.5000000
                       0.0000000  0.0000000  0.5000000     0.0000000  0.0000000  0.5000000
                       0.5000000  0.5000000  0.0000000     0.5000000  0.5000000  0.0000000
           toldfe      1.00000000E-10 Hartree
            typat      1  1  1  1  2  2  2  2  3  3  3  3  3  3  3  3  3  3  3  3
           xangst      2.4307225899E-02  2.7866564940E+00  3.0548077309E+00
                       1.4055295917E+00  1.3279795185E+00  3.0548077309E+00
                       1.4541440435E+00  1.5893744325E+00  1.0182692436E+00
                       2.8353664093E+00  1.3069745700E-01  1.0182692436E+00
                       0.0000000000E+00  1.4586769755E+00  0.0000000000E+00
                       0.0000000000E+00  1.4586769755E+00  2.0365384873E+00
                       1.4298368176E+00  0.0000000000E+00  0.0000000000E+00
                       1.4298368176E+00  0.0000000000E+00  2.0365384873E+00
                       2.2334051091E-01  1.3985794841E+00  1.0182692436E+00
                       5.9338227931E-01  6.0710135719E-01  2.2023127201E+00
                       5.9338227931E-01  6.0710135719E-01  3.9073027417E+00
                       8.3645453830E-01  2.0657783327E+00  3.9073027417E+00
                       8.3645453830E-01  2.0657783327E+00  2.2023127201E+00
                       1.2064963067E+00  2.8572564596E+00  1.0182692436E+00
                       1.6531773285E+00  6.0097491390E-02  3.0548077309E+00
                       2.0232190969E+00  8.5157561828E-01  1.8707642544E+00
                       2.0232190969E+00  8.5157561828E-01  1.6577423286E-01
                       2.2662913559E+00  2.3102525938E+00  1.6577423286E-01
                       2.2662913559E+00  2.3102525938E+00  1.8707642544E+00
                       2.6363331243E+00  1.5187744669E+00  3.0548077309E+00
            xcart      4.5934000000E-02  5.2660176000E+00  5.7727500000E+00
                       2.6560660000E+00  2.5095176000E+00  5.7727500000E+00
                       2.7479340000E+00  3.0034824000E+00  1.9242500000E+00
                       5.3580660000E+00  2.4698240000E-01  1.9242500000E+00
                       0.0000000000E+00  2.7565000000E+00  0.0000000000E+00
                       0.0000000000E+00  2.7565000000E+00  3.8485000000E+00
                       2.7020000000E+00  0.0000000000E+00  0.0000000000E+00
                       2.7020000000E+00  0.0000000000E+00  3.8485000000E+00
                       4.2205240000E-01  2.6429322000E+00  1.9242500000E+00
                       1.1213300000E+00  1.1472553000E+00  4.1617679000E+00
                       1.1213300000E+00  1.1472553000E+00  7.3837321000E+00
                       1.5806700000E+00  3.9037553000E+00  7.3837321000E+00
                       1.5806700000E+00  3.9037553000E+00  4.1617679000E+00
                       2.2799476000E+00  5.3994322000E+00  1.9242500000E+00
                       3.1240524000E+00  1.1356780000E-01  5.7727500000E+00
                       3.8233300000E+00  1.6092447000E+00  3.5352321000E+00
                       3.8233300000E+00  1.6092447000E+00  3.1326790000E-01
                       4.2826700000E+00  4.3657447000E+00  3.1326790000E-01
                       4.2826700000E+00  4.3657447000E+00  3.5352321000E+00
                       4.9819476000E+00  2.8700678000E+00  5.7727500000E+00
             xred      8.5000000000E-03  9.5520000000E-01  7.5000000000E-01
                       4.9150000000E-01  4.5520000000E-01  7.5000000000E-01
                       5.0850000000E-01  5.4480000000E-01  2.5000000000E-01
                       9.9150000000E-01  4.4800000000E-02  2.5000000000E-01
                       0.0000000000E+00  5.0000000000E-01  0.0000000000E+00
                       0.0000000000E+00  5.0000000000E-01  5.0000000000E-01
                       5.0000000000E-01  0.0000000000E+00  0.0000000000E+00
                       5.0000000000E-01  0.0000000000E+00  5.0000000000E-01
                       7.8100000000E-02  4.7940000000E-01  2.5000000000E-01
                       2.0750000000E-01  2.0810000000E-01  5.4070000000E-01
                       2.0750000000E-01  2.0810000000E-01  9.5930000000E-01
                       2.9250000000E-01  7.0810000000E-01  9.5930000000E-01
                       2.9250000000E-01  7.0810000000E-01  5.4070000000E-01
                       4.2190000000E-01  9.7940000000E-01  2.5000000000E-01
                       5.7810000000E-01  2.0600000000E-02  7.5000000000E-01
                       7.0750000000E-01  2.9190000000E-01  4.5930000000E-01
                       7.0750000000E-01  2.9190000000E-01  4.0700000000E-02
                       7.9250000000E-01  7.9190000000E-01  4.0700000000E-02
                       7.9250000000E-01  7.9190000000E-01  4.5930000000E-01
                       9.2190000000E-01  5.2060000000E-01  7.5000000000E-01
            znucl       20.00000   22.00000    8.00000
 
================================================================================


- Timing analysis has been suppressed with timopt=0



================================================================================

 Suggested references for the acknowledgment of ABINIT usage.

 The users of ABINIT have little formal obligations with respect to the ABINIT group
 (those specified in the GNU General Public License, http://www.gnu.org/copyleft/gpl.txt).
 However, it is common practice in the scientific literature,
 to acknowledge the efforts of people that have made the research possible.
 In this spirit, please find below suggested citations of work written by ABINIT developers,
 corresponding to implementations inside of ABINIT that you have used in the present run.
 Note also that it will be of great value to readers of publications presenting these results,
 to read papers enabling them to understand the theoretical formalism and details
 of the ABINIT implementation.
 For information on why they are suggested, see also https://docs.abinit.org/theory/acknowledgments.
-
- [1] Recent developments in the ABINIT software package.
- Computer Phys. Comm. 205, 106 (2016).
- X.Gonze, F.Jollet, F.Abreu Araujo, D.Adams, B.Amadon, T.Applencourt,
- C.Audouze, J.-M.Beuken, J.Bieder, A.Bokhanchuk, E.Bousquet, F.Bruneval
- D.Caliste, M.Cote, F.Dahm, F.Da Pieve, M.Delaveau, M.Di Gennaro,
- B.Dorado, C.Espejo, G.Geneste, L.Genovese, A.Gerossier, M.Giantomassi,
- Y.Gillet, D.R.Hamann, L.He, G.Jomard, J.Laflamme Janssen, S.Le Roux,
- A.Levitt, A.Lherbier, F.Liu, I.Lukacevic, A.Martin, C.Martins,
- M.J.T.Oliveira, S.Ponce, Y.Pouillon, T.Rangel, G.-M.Rignanese,
- A.H.Romero, B.Rousseau, O.Rubel, A.A.Shukri, M.Stankovski, M.Torrent,
- M.J.Van Setten, B.Van Troeye, M.J.Verstraete, D.Waroquier, J.Wiktor,
- B.Xu, A.Zhou, J.W.Zwanziger.
- Comment: the fourth generic paper describing the ABINIT project.
- Note that a version of this paper, that is not formatted for Computer Phys. Comm. 
- is available at https://www.abinit.org/about/ABINIT16.pdf .
- The licence allows the authors to put it on the Web.
- DOI and bibtex: see https://docs.abinit.org/theory/bibliography/#gonze2016
-
- [2] Optimized norm-conserving Vanderbilt pseudopotentials.
- D.R. Hamann, Phys. Rev. B 88, 085117 (2013).
- Comment: Some pseudopotential generated using the ONCVPSP code were used.
- DOI and bibtex: see https://docs.abinit.org/theory/bibliography/#hamann2013
-
- [3] ABINIT: First-principles approach of materials and nanosystem properties.
- Computer Phys. Comm. 180, 2582-2615 (2009).
- X. Gonze, B. Amadon, P.-M. Anglade, J.-M. Beuken, F. Bottin, P. Boulanger, F. Bruneval,
- D. Caliste, R. Caracas, M. Cote, T. Deutsch, L. Genovese, Ph. Ghosez, M. Giantomassi
- S. Goedecker, D.R. Hamann, P. Hermet, F. Jollet, G. Jomard, S. Leroux, M. Mancini, S. Mazevet,
- M.J.T. Oliveira, G. Onida, Y. Pouillon, T. Rangel, G.-M. Rignanese, D. Sangalli, R. Shaltaf,
- M. Torrent, M.J. Verstraete, G. Zerah, J.W. Zwanziger
- Comment: the third generic paper describing the ABINIT project.
- Note that a version of this paper, that is not formatted for Computer Phys. Comm. 
- is available at https://www.abinit.org/about/ABINIT_CPC_v10.pdf .
- The licence allows the authors to put it on the Web.
- DOI and bibtex: see https://docs.abinit.org/theory/bibliography/#gonze2009
-
- [4] A brief introduction to the ABINIT software package.
- Z. Kristallogr. 220, 558-562 (2005).
- X. Gonze, G.-M. Rignanese, M. Verstraete, J.-M. Beuken, Y. Pouillon, R. Caracas, F. Jollet,
- M. Torrent, G. Zerah, M. Mikami, Ph. Ghosez, M. Veithen, J.-Y. Raty, V. Olevano, F. Bruneval,
- L. Reining, R. Godby, G. Onida, D.R. Hamann, and D.C. Allan.
- Comment: the second generic paper describing the ABINIT project. Note that this paper
- should be cited especially if you are using the GW part of ABINIT, as several authors
- of this part are not in the list of authors of the first or third paper.
- The .pdf of the latter paper is available at https://www.abinit.org/about/zfk_0505-06_558-562.pdf.
- Note that it should not redistributed (Copyright by Oldenburg Wissenshaftverlag,
- the licence allows the authors to put it on the Web).
- DOI and bibtex: see https://docs.abinit.org/theory/bibliography/#gonze2005
-
- And optionally:
-
- [5] First-principles computation of material properties: the ABINIT software project. 
- X. Gonze, J.-M. Beuken, R. Caracas, F. Detraux, M. Fuchs, G.-M. Rignanese, L. Sindic,
- M. Verstraete, G. Zerah, F. Jollet, M. Torrent, A. Roy, M. Mikami, Ph. Ghosez, J.-Y. Raty, D.C. Allan.
- Computational Materials Science 25, 478-492 (2002). http://dx.doi.org/10.1016/S0927-0256(02)00325-7
- Comment: the original paper describing the ABINIT project.
- DOI and bibtex : see https://docs.abinit.org/theory/bibliography/#gonze2002
-
- Proc.   0 individual time (sec): cpu=         31.7  wall=         43.5
 
================================================================================
 
 Calculation completed.
.Delivered   2 WARNINGs and   0 COMMENTs to log file.
+Overall time at end (sec) : cpu=        527.9  wall=        695.1
