--------------------------------------------------------------------------
[[3588,1],0]: A high-performance Open MPI point-to-point messaging module
was unable to find any relevant network interfaces:

Module: OpenFabrics (openib)
  Host: abipy

Another transport will be used instead, although this may result in
lower performance.
--------------------------------------------------------------------------
  ABINIT 8.10.3
  
  Give name for formatted input file: 
tspin_1.in
  Give name for formatted output file:
tspin_1.out
  Give root name for generic input files:
tspin_1i
  Give root name for generic output files:
tspin_1o
  Give root name for generic temporary files:
tspin_1

--- !COMMENT
src_file: m_dtfil.F90
src_line: 1159
message: |
    Output file tspin_1.out
     already exists.
...


--- !COMMENT
src_file: m_dtfil.F90
src_line: 1183
message: |
    Renaming old tspin_1.out to tspin_1.out0002
...


.Version 8.10.3 of ABINIT 
.(MPI version, prepared for a x86_64_linux_gnu5.4 computer) 

.Copyright (C) 1998-2018 ABINIT group . 
 ABINIT comes with ABSOLUTELY NO WARRANTY.
 It is free software, and you are welcome to redistribute it
 under certain conditions (GNU General Public License,
 see ~abinit/COPYING or http://www.gnu.org/copyleft/gpl.txt).

 ABINIT is a project of the Universite Catholique de Louvain,
 Corning Inc. and other collaborators, see ~abinit/doc/developers/contributors.txt .
 Please read https://docs.abinit.org/theory/acknowledgments for suggested
 acknowledgments of the ABINIT effort.
 For more information, see https://www.abinit.org .

.Starting date : Fri 25 Oct 2019.
- ( at 16h45 )
  

 ++++++++++++++++++++++++++++++++++++++++++++++++++++++++++++++++++++++++++++++

 === Build Information === 
  Version       : 8.10.3
  Build target  : x86_64_linux_gnu5.4
  Build date    : 20191016

 === Compiler Suite === 
  C compiler       : gnu5.4
  C++ compiler     : gnu5.4
  Fortran compiler : gnu5.4
  CFLAGS           :  -g -O2 -mtune=native -march=native
  CXXFLAGS         :  -g -O2 -mtune=native -march=native
  FCFLAGS          :  -g -ffree-line-length-none  -fopenmp
  FC_LDFLAGS       : 

 === Optimizations === 
  Debug level        : basic
  Optimization level : standard
  Architecture       : unknown_unknown

 === Multicore === 
  Parallel build : yes
  Parallel I/O   : yes
  openMP support : yes
  GPU support    : no

 === Connectors / Fallbacks === 
  Connectors on : yes
  Fallbacks on  : yes
  DFT flavor    : none
  FFT flavor    : fftw3
  LINALG flavor : atlas
  MATH flavor   : none
  TIMER flavor  : abinit
  TRIO flavor   : netcdf

 === Experimental features === 
  Bindings            : @enable_bindings@
  Exports             : no
  GW double-precision : no

 ++++++++++++++++++++++++++++++++++++++++++++++++++++++++++++++++++++++++++++++


 ++++++++++++++++++++++++++++++++++++++++++++++++++++++++++++++++++++++++++++++
 Default optimizations:
   -O2 -mtune=native -march=native


 Optimizations for 43_ptgroups:
   -O0


 ++++++++++++++++++++++++++++++++++++++++++++++++++++++++++++++++++++++++++++++


 ++++++++++++++++++++++++++++++++++++++++++++++++++++++++++++++++++++++++++++++
 CPP options activated during the build:

                    CC_GNU                   CXX_GNU                    FC_GNU
 
 HAVE_FC_ALLOCATABLE_DT...             HAVE_FC_ASYNC         HAVE_FC_BACKTRACE
 
  HAVE_FC_COMMAND_ARGUMENT      HAVE_FC_COMMAND_LINE        HAVE_FC_CONTIGUOUS
 
           HAVE_FC_CPUTIME              HAVE_FC_EXIT             HAVE_FC_FLUSH
 
             HAVE_FC_GAMMA            HAVE_FC_GETENV   HAVE_FC_IEEE_EXCEPTIONS
 
          HAVE_FC_INT_QUAD             HAVE_FC_IOMSG     HAVE_FC_ISO_C_BINDING
 
  HAVE_FC_ISO_FORTRAN_2008        HAVE_FC_LONG_LINES        HAVE_FC_MOVE_ALLOC
 
           HAVE_FC_PRIVATE         HAVE_FC_PROTECTED         HAVE_FC_STREAM_IO
 
            HAVE_FC_SYSTEM                  HAVE_FFT            HAVE_FFT_FFTW3
 
              HAVE_FFT_MPI           HAVE_FFT_SERIAL          HAVE_FORTRAN2003
 
        HAVE_LIBPAW_ABINIT      HAVE_LIBTETRA_ABINIT               HAVE_LINALG
 
        HAVE_LINALG_SERIAL                  HAVE_MPI                 HAVE_MPI2
 
       HAVE_MPI_IALLREDUCE        HAVE_MPI_IALLTOALL       HAVE_MPI_IALLTOALLV
 
        HAVE_MPI_INTEGER16               HAVE_MPI_IO HAVE_MPI_TYPE_CREATE_S...
 
               HAVE_NETCDF           HAVE_NETCDF_MPI         HAVE_OMP_COLLAPSE
 
               HAVE_OPENMP             HAVE_OS_LINUX         HAVE_TIMER_ABINIT
 
              USE_MACROAVE                                                      
 ++++++++++++++++++++++++++++++++++++++++++++++++++++++++++++++++++++++++++++++

- input  file    -> tspin_1.in
- output file    -> tspin_1.out
- root for input  files -> tspin_1i
- root for output files -> tspin_1o


--- !WARNING
src_file: m_nctk.F90
src_line: 572
message: |
    netcdf lib does not support MPI-IO and: NetCDF: Parallel operation on file opened for non-parallel access
...

  Asked to delete not existent file: __TMP_FILE__

--- !WARNING
src_file: m_nctk.F90
src_line: 592
message: |
    The netcdf library does not support parallel IO, see message above
    Abinit won't be able to produce files in parallel e.g. when paral_kgb==1 is used.
    Action: install a netcdf4+HDF5 library with MPI-IO support.
...

-instrng: 58 lines of input have been read from file tspin_1.in


 Please give name of formatted atomic psp file
 iofn2 : for atom type 1, psp file is ../../../../../Psps_for_tests/26fe.pspnc
  read the values zionpsp=  8.0 , pspcod=   1 , lmax=   2

 inpspheads: deduce mpsang = 3, n1xccc = 2501.
 invars1 : treat image number: 1

 symlatt : the Bravais lattice is cI (body-centered cubic)
  xred   is defined in input file
 ingeo: takes atomic coordinates from input array xred

 symlatt : the Bravais lattice is cI (body-centered cubic)

 symlatt : the Bravais lattice is cI (body-centered cubic)
 symspgr : spgroup= 229  Im -3 m   (=Oh^9)
 symspgr : optical characteristics = isotropic
 ingeo: angdeg(1:3)=  109.47122063  109.47122063  109.47122063
 invars1 : treat image number: 1

 symlatt : the Bravais lattice is cI (body-centered cubic)
  xred   is defined in input file
 ingeo: takes atomic coordinates from input array xred

 symlatt : the Bravais lattice is cI (body-centered cubic)

 symlatt : the Bravais lattice is cI (body-centered cubic)
 symspgr : spgroup= 229  Im -3 m   (=Oh^9)
 symspgr : optical characteristics = isotropic
 ingeo: angdeg(1:3)=  109.47122063  109.47122063  109.47122063
 chkneu : initialized the occupation numbers for occopt=    3, spin-unpolarized or antiferromagnetic case :
  2.00  2.00  2.00  2.00  0.00  0.00  0.00  0.00
 chkneu : initialized the occupation numbers for occopt=    3
    spin up   values :
  1.00  1.00  1.00  1.00  0.00  0.00  0.00  0.00
    spin down values :
  1.00  1.00  1.00  1.00  0.00  0.00  0.00  0.00
npfft, npband, npspinor and npkpt:     1    1    1    2
mpi_setup: mkmem  undefined in the input file.Use default mkmem  = nkpt
 mpi_setup: With nkpt_me=3 and mkmem  = 6, ground state wf handled in core.
 Resetting mkmem  to nkpt_me to save memory space.
mpi_setup: mkqmem undefined in the input file.Use default mkqmem = nkpt
 mpi_setup: With nkpt_me=3 and mkqmem = 6, ground state wf handled in core.
 Resetting mkqmem to nkpt_me to save memory space.
mpi_setup: mk1mem undefined in the input file.Use default mk1mem = nkpt
 mpi_setup: With nkpt_me=3 and mk1mem = 6, ground state wf handled in core.
 Resetting mk1mem to nkpt_me to save memory space.
 For input ecut=  1.800000E+01 best grid ngfft=      18      18      18
       max ecut=  1.814241E+01

 ==== FFT mesh ====
  FFT mesh divisions ........................    18   18   18
  Augmented FFT divisions ...................    19   19   18
  FFT algorithm .............................   312
  FFT cache size ............................    16
 getmpw: optimal value of mpw= 301
npfft, npband, npspinor and npkpt:     1    1    1    2
mpi_setup: mkmem  undefined in the input file.Use default mkmem  = nkpt
 mpi_setup: With nkpt_me=6 and mkmem  = 6, ground state wf handled in core.
mpi_setup: mkqmem undefined in the input file.Use default mkqmem = nkpt
 mpi_setup: With nkpt_me=6 and mkqmem = 6, ground state wf handled in core.
mpi_setup: mk1mem undefined in the input file.Use default mk1mem = nkpt
 mpi_setup: With nkpt_me=6 and mk1mem = 6, ground state wf handled in core.
 For input ecut=  1.800000E+01 best grid ngfft=      18      18      18
       max ecut=  1.814241E+01

 ==== FFT mesh ====
  FFT mesh divisions ........................    18   18   18
  Augmented FFT divisions ...................    19   19   18
  FFT algorithm .............................   312
  FFT cache size ............................    16
 getmpw: optimal value of mpw= 301

 DATASET    1 : space group Im -3 m (#229); Bravais cI (body-center cubic)

 getdim_nloc : deduce lmnmax  =   8, lnmax  =   2,
                      lmnmaxso=   8, lnmaxso=   2.
memory : analysis of memory needs
================================================================================
 Values of the parameters that define the memory need for DATASET  1.
     intxc =       0    ionmov =       0      iscf =       7    lmnmax =       2
     lnmax =       2     mgfft =      18  mpssoang =       3    mqgrid =    3001
     natom =       1  nloc_mem =       1    nspden =       1   nspinor =       1
    nsppol =       1      nsym =      48    n1xccc =    2501    ntypat =       1
    occopt =       3   xclevel =       1
-    mband =           8        mffmem =           1         mkmem =           3
       mpw =         301          nfft =        5832          nkpt =           6
================================================================================
P This job should need less than                       3.072 Mbytes of memory.
  Rough estimation (10% accuracy) of disk space for files :
_ WF disk file :      0.222 Mbytes ; DEN or POT disk file :      0.046 Mbytes.
================================================================================

 Biggest array : f_fftgr(disk), with      0.7139 MBytes.
 memana : allocated an array of      0.714 Mbytes, for testing purposes.
 memana: allocated       3.072Mbytes, for testing purposes. 
 The job will continue.

 DATASET    2 : space group Im -3 m (#229); Bravais cI (body-center cubic)

 getdim_nloc : deduce lmnmax  =   8, lnmax  =   2,
                      lmnmaxso=   8, lnmaxso=   2.
memory : analysis of memory needs
================================================================================
 Values of the parameters that define the memory need for DATASET  2.
     intxc =       0    ionmov =       0      iscf =       7    lmnmax =       2
     lnmax =       2     mgfft =      18  mpssoang =       3    mqgrid =    3001
     natom =       1  nloc_mem =       1    nspden =       2   nspinor =       1
    nsppol =       2      nsym =      48    n1xccc =    2501    ntypat =       1
    occopt =       3   xclevel =       1
-    mband =           8        mffmem =           1         mkmem =           6
       mpw =         301          nfft =        5832          nkpt =           6
================================================================================
P This job should need less than                       4.309 Mbytes of memory.
  Rough estimation (10% accuracy) of disk space for files :
_ WF disk file :      0.443 Mbytes ; DEN or POT disk file :      0.091 Mbytes.
================================================================================

 Biggest array : f_fftgr(disk), with      1.4258 MBytes.
 memana : allocated an array of      1.426 Mbytes, for testing purposes.
 memana: allocated       4.309Mbytes, for testing purposes. 
 The job will continue.
--------------------------------------------------------------------------------
------------- Echo of variables that govern the present computation ------------
--------------------------------------------------------------------------------
-
- outvars: echo of selected default values                                      
-   iomode0 =  0 , fftalg0 =312 , wfoptalg0 =  0
-
- outvars: echo of global parameters not present in the input file              
-  max_nthreads =    1
-
 -outvars: echo values of preprocessed input variables --------
 
 These variables are accessible in NetCDF format (tspin_1o_OUT.nc)

            acell      5.4200000000E+00  5.4200000000E+00  5.4200000000E+00 Bohr
              amu      5.58470000E+01
        bs_loband1          0
        bs_loband2          0       0
             ecut      1.80000000E+01 Hartree
-          fftalg         312
           jdtset        1    2
              kpt      1.25000000E-01  1.25000000E-01  1.25000000E-01
                       3.75000000E-01  1.25000000E-01  1.25000000E-01
                      -1.25000000E-01  1.25000000E-01  1.25000000E-01
                      -3.75000000E-01  3.75000000E-01  1.25000000E-01
                      -3.75000000E-01 -3.75000000E-01  1.25000000E-01
                      -3.75000000E-01  3.75000000E-01  3.75000000E-01
         kptrlatt        4    0    0      0    4    0      0    0    4
          kptrlen      1.87754308E+01
P           mkmem1          3
P           mkmem2          6
            natom           1
            nband1          8
            nband2          8
           ndtset           2
            ngfft          18      18      18
             nkpt           6
           nspden1          1
           nspden2          2
           nsppol1          1
           nsppol2          2
            nstep          50
             nsym          48
           ntypat           1
              occ1     2.000000  2.000000  2.000000  2.000000  0.000000  0.000000
                       0.000000  0.000000
                       2.000000  2.000000  2.000000  2.000000  0.000000  0.000000
                       0.000000  0.000000
                       2.000000  2.000000  2.000000  2.000000  0.000000  0.000000
                       0.000000  0.000000
                       2.000000  2.000000  2.000000  2.000000  0.000000  0.000000
                       0.000000  0.000000
                       2.000000  2.000000  2.000000  2.000000  0.000000  0.000000
                       0.000000  0.000000
                       2.000000  2.000000  2.000000  2.000000  0.000000  0.000000
                       0.000000  0.000000
              occ2     1.000000  1.000000  1.000000  1.000000  0.000000  0.000000
                       0.000000  0.000000
                       1.000000  1.000000  1.000000  1.000000  0.000000  0.000000
                       0.000000  0.000000
                       1.000000  1.000000  1.000000  1.000000  0.000000  0.000000
                       0.000000  0.000000
                       1.000000  1.000000  1.000000  1.000000  0.000000  0.000000
                       0.000000  0.000000
                       1.000000  1.000000  1.000000  1.000000  0.000000  0.000000
                       0.000000  0.000000
                       1.000000  1.000000  1.000000  1.000000  0.000000  0.000000
                       0.000000  0.000000
                       1.000000  1.000000  1.000000  1.000000  0.000000  0.000000
                       0.000000  0.000000
                       1.000000  1.000000  1.000000  1.000000  0.000000  0.000000
                       0.000000  0.000000
                       1.000000  1.000000  1.000000  1.000000  0.000000  0.000000
                       0.000000  0.000000
                       1.000000  1.000000  1.000000  1.000000  0.000000  0.000000
                       0.000000  0.000000
                       1.000000  1.000000  1.000000  1.000000  0.000000  0.000000
                       0.000000  0.000000
                       1.000000  1.000000  1.000000  1.000000  0.000000  0.000000
                       0.000000  0.000000
           occopt           3
           prtdos           1
           prtvol           1
            rprim     -5.0000000000E-01  5.0000000000E-01  5.0000000000E-01
                       5.0000000000E-01 -5.0000000000E-01  5.0000000000E-01
                       5.0000000000E-01  5.0000000000E-01 -5.0000000000E-01
           shiftk      5.00000000E-01  5.00000000E-01  5.00000000E-01
          spgroup         229
           spinat1     0.0000000000E+00  0.0000000000E+00  0.0000000000E+00
           spinat2     0.0000000000E+00  0.0000000000E+00  4.0000000000E+00
           symrel      1  0  0   0  1  0   0  0  1      -1  0  0   0 -1  0   0  0 -1
                      -1 -1 -1   0  0  1   0  1  0       1  1  1   0  0 -1   0 -1  0
                       0  1  0   1  0  0  -1 -1 -1       0 -1  0  -1  0  0   1  1  1
                       0  0  1  -1 -1 -1   1  0  0       0  0 -1   1  1  1  -1  0  0
                       0  1  0   1  0  0   0  0  1       0 -1  0  -1  0  0   0  0 -1
                      -1 -1 -1   0  0  1   1  0  0       1  1  1   0  0 -1  -1  0  0
                       1  0  0   0  1  0  -1 -1 -1      -1  0  0   0 -1  0   1  1  1
                       0  0  1  -1 -1 -1   0  1  0       0  0 -1   1  1  1   0 -1  0
                      -1 -1 -1   1  0  0   0  0  1       1  1  1  -1  0  0   0  0 -1
                       0  1  0   0  0  1   1  0  0       0 -1  0   0  0 -1  -1  0  0
                       1  0  0  -1 -1 -1   0  1  0      -1  0  0   1  1  1   0 -1  0
                       0  0  1   0  1  0  -1 -1 -1       0  0 -1   0 -1  0   1  1  1
                       1  0  0  -1 -1 -1   0  0  1      -1  0  0   1  1  1   0  0 -1
                       0  1  0   0  0  1  -1 -1 -1       0 -1  0   0  0 -1   1  1  1
                      -1 -1 -1   1  0  0   0  1  0       1  1  1  -1  0  0   0 -1  0
                       0  0  1   0  1  0   1  0  0       0  0 -1   0 -1  0  -1  0  0
                       0  1  0  -1 -1 -1   0  0  1       0 -1  0   1  1  1   0  0 -1
                       1  0  0   0  0  1  -1 -1 -1      -1  0  0   0  0 -1   1  1  1
                      -1 -1 -1   0  1  0   1  0  0       1  1  1   0 -1  0  -1  0  0
                       0  0  1   1  0  0   0  1  0       0  0 -1  -1  0  0   0 -1  0
                      -1 -1 -1   0  1  0   0  0  1       1  1  1   0 -1  0   0  0 -1
                       1  0  0   0  0  1   0  1  0      -1  0  0   0  0 -1   0 -1  0
                       0  1  0  -1 -1 -1   1  0  0       0 -1  0   1  1  1  -1  0  0
                       0  0  1   1  0  0  -1 -1 -1       0  0 -1  -1  0  0   1  1  1
           tolvrs      1.00000000E-10
            typat      1
              wtk        0.12500    0.18750    0.09375    0.37500    0.12500    0.09375
            znucl       26.00000

================================================================================

 chkinp: Checking input parameters for consistency, jdtset=   1.

 chkinp: Checking input parameters for consistency, jdtset=   2.
 DATA TYPE INFORMATION: 
 REAL:      Data type name: REAL(DP) 
            Kind value:      8
            Precision:      15
            Smallest nonnegligible quantity relative to 1:  0.22204460E-15
            Smallest positive number:                       0.22250739-307
            Largest representable number:                   0.17976931+309
 INTEGER:   Data type name: INTEGER(default) 
            Kind value: 4
            Bit size:   32
            Largest representable number: 2147483647
 LOGICAL:   Data type name: LOGICAL 
            Kind value: 4
 CHARACTER: Data type name: CHARACTER             Kind value: 1

  ==== OpenMP parallelism is ON ====
- Max_threads:       1
- Num_threads:       1
- Num_procs:         2
- Dynamic:           F
- Nested:            F
 
  ==== Using MPI-2 specifications ==== 
  MPI-IO support is ON
  xmpi_tag_ub ................   2147483647
  xmpi_bsize_ch ..............            1
  xmpi_bsize_int .............            4
  xmpi_bsize_sp ..............            4
  xmpi_bsize_dp ..............            8
  xmpi_bsize_spc .............            8
  xmpi_bsize_dpc .............           16
  xmpio_bsize_frm ............            4
  xmpi_address_kind ..........            8
  xmpi_offset_kind ...........            8
  MPI_WTICK ..................    9.9999999999999995E-007

================================================================================
== DATASET  1 ==================================================================
-   nproc =    2


--- !COMMENT
src_file: m_xgScalapack.F90
src_line: 251
message: |
    xgScalapack in auto mode
...


 getdim_nloc : deduce lmnmax  =   8, lnmax  =   2,
                      lmnmaxso=   8, lnmaxso=   2.
 Exchange-correlation functional for the present dataset will be:
  LDA: new Teter (4/93) with spin-polarized option - ixc=1
 Citation for XC functional:
  S. Goedecker, M. Teter, J. Huetter, PRB 54, 1703 (1996)

 Unit cell volume ucvol=  7.9610044E+01 bohr^3
 Angles (23,13,12)=  1.09471221E+02  1.09471221E+02  1.09471221E+02 degrees

 getcut: wavevector=  0.0000  0.0000  0.0000  ngfft=  18  18  18
         ecut(hartree)=     18.000   => boxcut(ratio)=   2.00790
 kpgio: loop on k-points done in parallel
- pspini: atom type   1  psp file is ../../../../../Psps_for_tests/26fe.pspnc
- pspatm: opening atomic psp file    ../../../../../Psps_for_tests/26fe.pspnc
-  Troullier-Martins psp for element  Fe        Thu Oct 27 17:35:05 EDT 1994
- 26.00000   8.00000    940714                znucl, zion, pspdat
    1    1    2    0      2001   0.00000      pspcod,pspxc,lmax,lloc,mmax,r2well
    0   4.333  10.868    0   2.2918558        l,e99.0,e99.9,nproj,rcpsp
   0.00000000   0.00000000   0.00000000   0.00000000     rms, ekb1, ekb2, epsatm
    1   1.213   4.197    1   2.8345121        l,e99.0,e99.9,nproj,rcpsp
   0.00000000   0.00000000   0.00000000   0.00000000     rms, ekb1, ekb2, epsatm
    2  18.664  23.972    1   2.2918558        l,e99.0,e99.9,nproj,rcpsp
   0.00000000   0.00000000   0.00000000   0.00000000     rms, ekb1, ekb2, epsatm
    1.56404770202776    2.06158206779471    6.88331421535388   rchrg,fchrg,qchrg
  pspatm : epsatm=   62.03296659
         --- l  ekb(1:nproj) -->
             1    1.561134
             2   -8.115829
 pspatm: atomic psp has been read  and splines computed

   4.96263733E+02                                ecore*ucvol(ha*bohr**3)
 ==== Info on pseudopotentials ====
  Norm-conserving pseudopotentials
  Number of pseudopotentials ..    1
  Number of types of atoms   ..    1
  Scalar calculation (no spin-orbit term)
  Nonlocal part applied using Legendre polynomials
  Max number of non-local projectors over l and type   1
  Highest angular momentum +1 .......   3
  Max number of (l,n)   components ..   2
  Max number of (l,m,n) components ..   2

 Pseudo-Core Charge Info: 
   Number of radial points for pseudo-core charge .. 2501
   XC core-correction treatment (optnlxccc) ........    1
   Radius for pseudo-core charge for each type ..... 

  - Atom type    1 has pseudo-core radius ..  4.6921

 Info on the Q-grid used for form factors in spline form: 
   Number of q-points for radial functions ffspl ..   3001
   Number of q-points for vlspl ...................   3001
   vloc is computed in Reciprocal Space
   model core charge treated in real-space

  XC functional for type 1 is 1
  Pseudo valence available: no

 wfconv:     8 bands initialized randomly with npw=   294, for ikpt=     1
 wfconv:     8 bands initialized randomly with npw=   296, for ikpt=     2
 wfconv:     8 bands initialized randomly with npw=   301, for ikpt=     3
_setup2: Arith. and geom. avg. npw (full set) are     290.438     290.380
 initro: for itypat=  1, take decay length=      0.8000,
 initro: indeed, coreel=     18.0000, nval=  8 and densty=  0.0000E+00.

================================================================================

 getcut: wavevector=  0.0000  0.0000  0.0000  ngfft=  18  18  18
         ecut(hartree)=     18.000   => boxcut(ratio)=   2.00790

 ITER STEP NUMBER     1
 vtorho : nnsclo_now=2, note that nnsclo,dbl_nnsclo,istep=0 0 1
 newocc: new Fermi energy is      -0.665909 , with nelect=      8.000000
  Number of bissection calls =  48
 newocc : computed new occ. numbers for occopt= 3 , spin-unpolarized case.
 1.997 1.996 1.879 1.686 1.662 0.000 0.000 0.000
 1.999 1.995 1.741 1.606 0.811 0.000 0.000 0.000
 1.998 1.988 1.987 1.948 1.653 0.000 0.000 0.000
 1.996 1.992 1.849 1.619 0.417 0.000 0.000 0.000
 1.994 1.985 1.963 1.394 0.131 0.000 0.000 0.000
 1.995 1.984 0.701 0.690 0.344 0.000 0.000 0.000
mkrho: echo density (plane-wave part only)
 Total charge density [el/Bohr^3]
      Maximum=    1.0095E+00  at reduced coord.    0.0000    0.8333    0.8333
      Minimum=    2.2187E-04  at reduced coord.    0.0000    0.0000    0.0000
   Integrated=    8.0000E+00
 Total charge density [el/Bohr^3]
      Maximum=    1.0095E+00  at reduced coord.    0.0000    0.8333    0.8333
      Minimum=    2.2187E-04  at reduced coord.    0.0000    0.0000    0.0000
   Integrated=    8.0000E+00
  rhotov : is_hybrid_ncpp= F
  rhotov : n3xccc=        5832
 ETOT  1  -23.451959980875    -2.345E+01 3.955E-01 1.127E+03
 scprqt: <Vxc>= -4.2787932E-01 hartree

Simple mixing update:
  residual square of the potential :   663.88916430562699
 scfcv_core: previous iteration took 00 [s]

 ITER STEP NUMBER     2
 vtorho : nnsclo_now=2, note that nnsclo,dbl_nnsclo,istep=0 0 2
 newocc: new Fermi energy is       0.056604 , with nelect=      8.000000
  Number of bissection calls =  49
 newocc : computed new occ. numbers for occopt= 3 , spin-unpolarized case.
 2.000 2.000 2.000 0.719 0.718 0.255 0.000 0.000
 2.000 2.000 2.000 0.396 0.213 0.000 0.000 0.000
 2.000 2.000 2.000 1.999 1.992 0.224 0.000 0.000
 2.000 2.000 2.000 1.943 0.140 0.008 0.000 0.000
 2.000 2.000 2.000 1.059 1.059 0.000 0.000 0.000
 2.000 2.000 1.948 1.948 0.546 0.013 0.000 0.000
mkrho: echo density (plane-wave part only)
 Total charge density [el/Bohr^3]
      Maximum=    4.0483E-01  at reduced coord.    0.8333    0.8333    0.8333
      Minimum=    9.7446E-04  at reduced coord.    0.0000    0.0000    0.0000
   Integrated=    8.0000E+00
 Total charge density [el/Bohr^3]
      Maximum=    4.0483E-01  at reduced coord.    0.8333    0.8333    0.8333
      Minimum=    9.7446E-04  at reduced coord.    0.0000    0.0000    0.0000
   Integrated=    8.0000E+00
  rhotov : is_hybrid_ncpp= F
  rhotov : n3xccc=        5832
 ETOT  2  -23.916448283242    -4.645E-01 5.021E-03 6.637E+02
 scprqt: <Vxc>= -5.5403535E-01 hartree

 Pulay update with  1 previous iterations:
 mixing of old trial potential : alpha(m:m-4)=  0.565      0.435
 scfcv_core: previous iteration took 00 [s]

 ITER STEP NUMBER     3
 vtorho : nnsclo_now=1, note that nnsclo,dbl_nnsclo,istep=0 0 3
 newocc: new Fermi energy is      -0.311108 , with nelect=      8.000000
  Number of bissection calls =  49
 newocc : computed new occ. numbers for occopt= 3 , spin-unpolarized case.
 2.000 2.000 2.000 1.236 1.235 0.279 0.000 0.000
 2.000 2.000 1.997 1.176 0.994 0.000 0.000 0.000
 2.000 1.999 1.997 1.997 1.945 0.770 0.000 0.000
 2.000 2.000 1.998 1.616 0.064 0.064 0.000 0.000
 2.000 2.000 2.000 0.882 0.881 0.000 0.000 0.000
 2.000 2.000 0.587 0.587 0.134 0.000 0.000 0.000
mkrho: echo density (plane-wave part only)
 Total charge density [el/Bohr^3]
      Maximum=    6.4062E-01  at reduced coord.    0.8333    0.8333    0.9444
      Minimum=    1.2342E-03  at reduced coord.    0.0000    0.0000    0.0000
   Integrated=    8.0000E+00
 Total charge density [el/Bohr^3]
      Maximum=    6.4062E-01  at reduced coord.    0.8333    0.8333    0.9444
      Minimum=    1.2342E-03  at reduced coord.    0.0000    0.0000    0.0000
   Integrated=    8.0000E+00
  rhotov : is_hybrid_ncpp= F
  rhotov : n3xccc=        5832
 ETOT  3  -24.655626921534    -7.392E-01 2.500E-02 5.294E+00
 scprqt: <Vxc>= -5.1321871E-01 hartree

 Pulay update with  2 previous iterations:
 mixing of old trial potential : alpha(m:m-4)= -0.725      0.950      0.775
 scfcv_core: previous iteration took 00 [s]

 ITER STEP NUMBER     4
 vtorho : nnsclo_now=1, note that nnsclo,dbl_nnsclo,istep=0 0 4
 newocc: new Fermi energy is      -0.283536 , with nelect=      8.000000
  Number of bissection calls =  48
 newocc : computed new occ. numbers for occopt= 3 , spin-unpolarized case.
 2.000 2.000 2.000 1.236 1.236 0.266 0.000 0.000
 2.000 2.000 1.995 1.195 1.015 0.000 0.000 0.000
 2.000 1.999 1.997 1.997 1.941 0.778 0.000 0.000
 2.000 2.000 1.997 1.609 0.071 0.043 0.000 0.000
 2.000 2.000 2.000 0.893 0.893 0.000 0.000 0.000
 2.000 2.000 0.576 0.576 0.147 0.000 0.000 0.000
mkrho: echo density (plane-wave part only)
 Total charge density [el/Bohr^3]
      Maximum=    6.5493E-01  at reduced coord.    0.0000    0.8333    0.8333
      Minimum=    1.1998E-03  at reduced coord.    0.0000    0.0000    0.0000
   Integrated=    8.0000E+00
 Total charge density [el/Bohr^3]
      Maximum=    6.5493E-01  at reduced coord.    0.0000    0.8333    0.8333
      Minimum=    1.1998E-03  at reduced coord.    0.0000    0.0000    0.0000
   Integrated=    8.0000E+00
  rhotov : is_hybrid_ncpp= F
  rhotov : n3xccc=        5832
 ETOT  4  -24.649234179745     6.393E-03 3.139E-03 1.448E+01
 scprqt: <Vxc>= -5.1086093E-01 hartree

 Pulay update with  3 previous iterations:
 mixing of old trial potential : alpha(m:m-4)=  -1.49       2.43      0.287E-01  0.233E-01
 scfcv_core: previous iteration took 00 [s]

 ITER STEP NUMBER     5
 vtorho : nnsclo_now=1, note that nnsclo,dbl_nnsclo,istep=0 0 5
 newocc: new Fermi energy is      -0.249027 , with nelect=      8.000000
  Number of bissection calls =  49
 newocc : computed new occ. numbers for occopt= 3 , spin-unpolarized case.
 2.000 2.000 2.000 1.227 1.227 0.287 0.000 0.000
 2.000 2.000 1.999 1.135 0.966 0.000 0.000 0.000
 2.000 1.999 1.997 1.997 1.952 0.758 0.000 0.000
 2.000 2.000 1.999 1.645 0.097 0.054 0.000 0.000
 2.000 2.000 2.000 0.856 0.856 0.000 0.000 0.000
 2.000 2.000 0.599 0.599 0.113 0.000 0.000 0.000
mkrho: echo density (plane-wave part only)
 Total charge density [el/Bohr^3]
      Maximum=    6.1901E-01  at reduced coord.    0.7778    0.8889    0.8889
      Minimum=    1.1963E-03  at reduced coord.    0.0000    0.0000    0.0000
   Integrated=    8.0000E+00
 Total charge density [el/Bohr^3]
      Maximum=    6.1901E-01  at reduced coord.    0.7778    0.8889    0.8889
      Minimum=    1.1963E-03  at reduced coord.    0.0000    0.0000    0.0000
   Integrated=    8.0000E+00
  rhotov : is_hybrid_ncpp= F
  rhotov : n3xccc=        5832
 ETOT  5  -24.661562617999    -1.233E-02 4.939E-04 1.180E-01
 scprqt: <Vxc>= -5.1786205E-01 hartree

 Pulay update with  4 previous iterations:
 mixing of old trial potential : alpha(m:m-4)=  0.867     -0.231      0.375     -0.114E-01  0.495E-03
 scfcv_core: previous iteration took 00 [s]

 ITER STEP NUMBER     6
 vtorho : nnsclo_now=1, note that nnsclo,dbl_nnsclo,istep=0 0 6
 newocc: new Fermi energy is      -0.258667 , with nelect=      8.000000
  Number of bissection calls =  49
 newocc : computed new occ. numbers for occopt= 3 , spin-unpolarized case.
 2.000 2.000 2.000 1.229 1.229 0.287 0.000 0.000
 2.000 2.000 1.999 1.141 0.970 0.000 0.000 0.000
 2.000 1.999 1.997 1.997 1.952 0.761 0.000 0.000
 2.000 2.000 1.999 1.641 0.092 0.055 0.000 0.000
 2.000 2.000 2.000 0.859 0.859 0.000 0.000 0.000
 2.000 2.000 0.595 0.595 0.115 0.000 0.000 0.000
mkrho: echo density (plane-wave part only)
 Total charge density [el/Bohr^3]
      Maximum=    6.2185E-01  at reduced coord.    0.7778    0.8889    0.8889
      Minimum=    1.1961E-03  at reduced coord.    0.0000    0.0000    0.0000
   Integrated=    8.0000E+00
 Total charge density [el/Bohr^3]
      Maximum=    6.2185E-01  at reduced coord.    0.7778    0.8889    0.8889
      Minimum=    1.1961E-03  at reduced coord.    0.0000    0.0000    0.0000
   Integrated=    8.0000E+00
  rhotov : is_hybrid_ncpp= F
  rhotov : n3xccc=        5832
 ETOT  6  -24.661704931891    -1.423E-04 1.657E-04 2.087E-03
 scprqt: <Vxc>= -5.1731415E-01 hartree

 Pulay update with  5 previous iterations:
 mixing of old trial potential : alpha(m:m-4)=   1.23     -0.228      0.170E-01 -0.185E-01  0.266E-02
 scfcv_core: previous iteration took 00 [s]

 ITER STEP NUMBER     7
 vtorho : nnsclo_now=1, note that nnsclo,dbl_nnsclo,istep=0 0 7
 newocc: new Fermi energy is      -0.258539 , with nelect=      8.000000
  Number of bissection calls =  47
 newocc : computed new occ. numbers for occopt= 3 , spin-unpolarized case.
 2.000 2.000 2.000 1.229 1.229 0.287 0.000 0.000
 2.000 2.000 1.999 1.142 0.970 0.000 0.000 0.000
 2.000 1.999 1.997 1.997 1.952 0.761 0.000 0.000
 2.000 2.000 1.999 1.641 0.092 0.056 0.000 0.000
 2.000 2.000 2.000 0.860 0.860 0.000 0.000 0.000
 2.000 2.000 0.595 0.595 0.116 0.000 0.000 0.000
mkrho: echo density (plane-wave part only)
 Total charge density [el/Bohr^3]
      Maximum=    6.2228E-01  at reduced coord.    0.7778    0.8889    0.8889
      Minimum=    1.1963E-03  at reduced coord.    0.0000    0.0000    0.0000
   Integrated=    8.0000E+00
 Total charge density [el/Bohr^3]
      Maximum=    6.2228E-01  at reduced coord.    0.7778    0.8889    0.8889
      Minimum=    1.1963E-03  at reduced coord.    0.0000    0.0000    0.0000
   Integrated=    8.0000E+00
  rhotov : is_hybrid_ncpp= F
  rhotov : n3xccc=        5832
 ETOT  7  -24.661707256358    -2.324E-06 2.793E-06 1.571E-05
 scprqt: <Vxc>= -5.1722656E-01 hartree

 Pulay update with  6 previous iterations:
 mixing of old trial potential : alpha(m:m-4)=   1.05     -0.675E-01  0.190E-01  0.106E-03 -0.312E-02
 scfcv_core: previous iteration took 00 [s]

 ITER STEP NUMBER     8
 vtorho : nnsclo_now=1, note that nnsclo,dbl_nnsclo,istep=0 0 8
 newocc: new Fermi energy is      -0.258432 , with nelect=      8.000000
  Number of bissection calls =  49
 newocc : computed new occ. numbers for occopt= 3 , spin-unpolarized case.
 2.000 2.000 2.000 1.229 1.229 0.287 0.000 0.000
 2.000 2.000 1.999 1.142 0.970 0.000 0.000 0.000
 2.000 1.999 1.997 1.997 1.952 0.761 0.000 0.000
 2.000 2.000 1.999 1.641 0.092 0.056 0.000 0.000
 2.000 2.000 2.000 0.860 0.860 0.000 0.000 0.000
 2.000 2.000 0.595 0.595 0.116 0.000 0.000 0.000
mkrho: echo density (plane-wave part only)
 Total charge density [el/Bohr^3]
      Maximum=    6.2226E-01  at reduced coord.    0.7778    0.8889    0.8889
      Minimum=    1.1962E-03  at reduced coord.    0.0000    0.0000    0.0000
   Integrated=    8.0000E+00
 Total charge density [el/Bohr^3]
      Maximum=    6.2226E-01  at reduced coord.    0.7778    0.8889    0.8889
      Minimum=    1.1962E-03  at reduced coord.    0.0000    0.0000    0.0000
   Integrated=    8.0000E+00
  rhotov : is_hybrid_ncpp= F
  rhotov : n3xccc=        5832
 ETOT  8  -24.661707266864    -1.051E-08 5.165E-06 5.475E-07
 scprqt: <Vxc>= -5.1723084E-01 hartree

 Pulay update with  7 previous iterations:
 mixing of old trial potential : alpha(m:m-4)=  0.850      0.151     -0.232E-02  0.893E-03 -0.268E-03
 scfcv_core: previous iteration took 00 [s]

 ITER STEP NUMBER     9
 vtorho : nnsclo_now=1, note that nnsclo,dbl_nnsclo,istep=0 0 9
 newocc: new Fermi energy is      -0.258430 , with nelect=      8.000000
  Number of bissection calls =  49
 newocc : computed new occ. numbers for occopt= 3 , spin-unpolarized case.
 2.000 2.000 2.000 1.229 1.229 0.287 0.000 0.000
 2.000 2.000 1.999 1.142 0.970 0.000 0.000 0.000
 2.000 1.999 1.997 1.997 1.952 0.761 0.000 0.000
 2.000 2.000 1.999 1.641 0.092 0.056 0.000 0.000
 2.000 2.000 2.000 0.860 0.860 0.000 0.000 0.000
 2.000 2.000 0.595 0.595 0.116 0.000 0.000 0.000
mkrho: echo density (plane-wave part only)
 Total charge density [el/Bohr^3]
      Maximum=    6.2226E-01  at reduced coord.    0.7778    0.8889    0.8889
      Minimum=    1.1962E-03  at reduced coord.    0.0000    0.0000    0.0000
   Integrated=    8.0000E+00
 Total charge density [el/Bohr^3]
      Maximum=    6.2226E-01  at reduced coord.    0.7778    0.8889    0.8889
      Minimum=    1.1962E-03  at reduced coord.    0.0000    0.0000    0.0000
   Integrated=    8.0000E+00
  rhotov : is_hybrid_ncpp= F
  rhotov : n3xccc=        5832
 ETOT  9  -24.661707267543    -6.790E-10 2.522E-06 1.157E-09
 scprqt: <Vxc>= -5.1723222E-01 hartree

 Pulay update with  7 previous iterations:
 mixing of old trial potential : alpha(m:m-4)=   1.03     -0.160E-01 -0.123E-01  0.142E-02 -0.382E-03
 scfcv_core: previous iteration took 00 [s]

 ITER STEP NUMBER    10
 vtorho : nnsclo_now=1, note that nnsclo,dbl_nnsclo,istep=0 0 10
 newocc: new Fermi energy is      -0.258431 , with nelect=      8.000000
  Number of bissection calls =  49
 newocc : computed new occ. numbers for occopt= 3 , spin-unpolarized case.
 2.000 2.000 2.000 1.229 1.229 0.287 0.000 0.000
 2.000 2.000 1.999 1.142 0.970 0.000 0.000 0.000
 2.000 1.999 1.997 1.997 1.952 0.761 0.000 0.000
 2.000 2.000 1.999 1.641 0.092 0.056 0.000 0.000
 2.000 2.000 2.000 0.860 0.860 0.000 0.000 0.000
 2.000 2.000 0.595 0.595 0.116 0.000 0.000 0.000
mkrho: echo density (plane-wave part only)
 Total charge density [el/Bohr^3]
      Maximum=    6.2226E-01  at reduced coord.    0.7778    0.8889    0.8889
      Minimum=    1.1962E-03  at reduced coord.    0.0000    0.0000    0.0000
   Integrated=    8.0000E+00
 Total charge density [el/Bohr^3]
      Maximum=    6.2226E-01  at reduced coord.    0.7778    0.8889    0.8889
      Minimum=    1.1962E-03  at reduced coord.    0.0000    0.0000    0.0000
   Integrated=    8.0000E+00
  rhotov : is_hybrid_ncpp= F
  rhotov : n3xccc=        5832
 ETOT 10  -24.661707267544    -1.201E-12 4.490E-06 1.697E-10
 scprqt: <Vxc>= -5.1723219E-01 hartree

 Pulay update with  7 previous iterations:
 mixing of old trial potential : alpha(m:m-4)=   1.07     -0.709E-01  0.598E-03 -0.413E-03 -0.552E-04
 scfcv_core: previous iteration took 00 [s]

 ITER STEP NUMBER    11
 vtorho : nnsclo_now=1, note that nnsclo,dbl_nnsclo,istep=0 0 11
 newocc: new Fermi energy is      -0.258431 , with nelect=      8.000000
  Number of bissection calls =  47
 newocc : computed new occ. numbers for occopt= 3 , spin-unpolarized case.
 2.000 2.000 2.000 1.229 1.229 0.287 0.000 0.000
 2.000 2.000 1.999 1.142 0.970 0.000 0.000 0.000
 2.000 1.999 1.997 1.997 1.952 0.761 0.000 0.000
 2.000 2.000 1.999 1.641 0.092 0.056 0.000 0.000
 2.000 2.000 2.000 0.860 0.860 0.000 0.000 0.000
 2.000 2.000 0.595 0.595 0.116 0.000 0.000 0.000
mkrho: echo density (plane-wave part only)
 Total charge density [el/Bohr^3]
      Maximum=    6.2226E-01  at reduced coord.    0.7778    0.8889    0.8889
      Minimum=    1.1962E-03  at reduced coord.    0.0000    0.0000    0.0000
   Integrated=    8.0000E+00
 Total charge density [el/Bohr^3]
      Maximum=    6.2226E-01  at reduced coord.    0.7778    0.8889    0.8889
      Minimum=    1.1962E-03  at reduced coord.    0.0000    0.0000    0.0000
   Integrated=    8.0000E+00
  rhotov : is_hybrid_ncpp= F
  rhotov : n3xccc=        5832
 ETOT 11  -24.661707267544    -1.208E-13 2.157E-06 1.192E-13
 scprqt: <Vxc>= -5.1723217E-01 hartree

 At SCF step   11       vres2   =  1.19E-13 < tolvrs=  1.00E-10 =>converged.

 Cartesian components of stress tensor (hartree/bohr^3)
  sigma(1 1)=  1.88952578E-02  sigma(3 2)=  0.00000000E+00
  sigma(2 2)=  1.88952578E-02  sigma(3 1)=  0.00000000E+00
  sigma(3 3)=  1.88952578E-02  sigma(2 1)=  0.00000000E+00

 fftdatar_write: About to write data to: tspin_1o_DS1_DEN with iomode IO_MODE_FORTRAN
 IO operation completed. cpu_time:       0.0 [s], walltime:       0.0 [s]
================================================================================

 ----iterations are completed or convergence reached----

 Mean square residual over all n,k,spin=   45.086E-09; max=  21.572E-07
   0.1250  0.1250  0.1250    1  1.38845E-11 kpt; spin; max resid(k); each band:
  1.06E-15 3.21E-15 3.21E-15 3.85E-16 3.84E-16 1.19E-15 8.30E-15 1.39E-11
   0.3750  0.1250  0.1250    1  6.01411E-09 kpt; spin; max resid(k); each band:
  5.22E-15 2.28E-16 5.48E-15 2.86E-17 1.89E-16 5.48E-15 4.61E-15 6.01E-09
  -0.1250  0.1250  0.1250    1  2.15725E-06 kpt; spin; max resid(k); each band:
  1.16E-16 2.45E-18 1.02E-16 1.93E-16 2.96E-15 3.39E-16 8.26E-10 2.16E-06
  -0.3750  0.3750  0.1250    1  1.10866E-11 kpt; spin; max resid(k); each band:
  3.70E-15 1.45E-15 4.52E-15 5.45E-16 2.97E-15 4.80E-16 4.21E-15 1.11E-11
  -0.3750 -0.3750  0.1250    1  4.89515E-15 kpt; spin; max resid(k); each band:
  4.42E-15 4.42E-15 2.59E-15 6.71E-16 6.69E-16 4.90E-15 4.89E-15 2.58E-15
  -0.3750  0.3750  0.3750    1  2.99733E-15 kpt; spin; max resid(k); each band:
  2.99E-15 6.66E-17 2.11E-15 2.11E-15 2.28E-17 3.00E-15 2.11E-15 2.10E-15

 outwf: write wavefunction to file tspin_1o_DS1_WFK, with iomode -1
 outwf with iomode: -1, cpu_time:     0.00[s], walltime:     0.00 [s]
 prteigrs : about to open file tspin_1o_DS1_EIG
 Fermi (or HOMO) energy (hartree) =  -0.25843   Average Vxc (hartree)=  -0.51723
 Eigenvalues (hartree) for nkpt=   6  k points:
 kpt#   1, nband=  8, wtk=  0.12500, kpt=  0.1250  0.1250  0.1250 (reduced coord)
  -0.47539   -0.35658   -0.35658   -0.26310   -0.26310   -0.24056    0.34937    0.34937
      occupation numbers for kpt#   1
   2.00000    1.99989    1.99989    1.22915    1.22915    0.28676    0.00000    0.00000
 kpt#   2, nband=  8, wtk=  0.18750, kpt=  0.3750  0.1250  0.1250 (reduced coord)
  -0.40588   -0.37775   -0.33426   -0.26129   -0.25784   -0.11184    0.01640    0.25405
      occupation numbers for kpt#   2
   2.00000    1.99999    1.99898    1.14210    0.97020    0.00000    0.00000    0.00000
 kpt#   3, nband=  8, wtk=  0.09375, kpt= -0.1250  0.1250  0.1250 (reduced coord)
  -0.55320   -0.33053   -0.32467   -0.32467   -0.29540   -0.25355    0.54744    0.60554
      occupation numbers for kpt#   3
   2.00000    1.99852    1.99735    1.99735    1.95161    0.76070    0.00000    0.00000
 kpt#   4, nband=  8, wtk=  0.37500, kpt= -0.3750  0.3750  0.1250 (reduced coord)
  -0.43137   -0.34860   -0.33787   -0.27361   -0.22808   -0.22288    0.13427    0.39562
      occupation numbers for kpt#   4
   2.00000    1.99976    1.99929    1.64052    0.09174    0.05554    0.00000    0.00000
 kpt#   5, nband=  8, wtk=  0.12500, kpt= -0.3750 -0.3750  0.1250 (reduced coord)
  -0.37265   -0.37265   -0.35984   -0.25561   -0.25561   -0.00135   -0.00135    0.06850
      occupation numbers for kpt#   5
   1.99998    1.99998    1.99992    0.85964    0.85964    0.00000    0.00000    0.00000
 kpt#   6, nband=  8, wtk=  0.09375, kpt= -0.3750  0.3750  0.3750 (reduced coord)
  -0.40314   -0.38779   -0.24984   -0.24984   -0.23052   -0.09805    0.16268    0.16268
      occupation numbers for kpt#   6
   2.00000    2.00000    0.59511    0.59511    0.11564    0.00000    0.00000    0.00000
 Total charge density [el/Bohr^3]
      Maximum=    6.2226E-01  at reduced coord.    0.7778    0.8889    0.8889
 Next maximum=    6.2226E-01  at reduced coord.    0.8889    0.7778    0.8889
      Minimum=    1.1962E-03  at reduced coord.    0.0000    0.0000    0.0000
 Next minimum=    3.3476E-02  at reduced coord.    0.5000    0.5000    0.0000
   Integrated=    8.0000E+00

 Cartesian components of stress tensor (hartree/bohr^3)
  sigma(1 1)=  1.88952578E-02  sigma(3 2)=  0.00000000E+00
  sigma(2 2)=  1.88952578E-02  sigma(3 1)=  0.00000000E+00
  sigma(3 3)=  1.88952578E-02  sigma(2 1)=  0.00000000E+00

-Cartesian components of stress tensor (GPa)         [Pressure= -5.5592E+02 GPa]
- sigma(1 1)=  5.55917583E+02  sigma(3 2)=  0.00000000E+00
- sigma(2 2)=  5.55917583E+02  sigma(3 1)=  0.00000000E+00
- sigma(3 3)=  5.55917583E+02  sigma(2 1)=  0.00000000E+00

================================================================================
== DATASET  2 ==================================================================
-   nproc =    2


--- !COMMENT
src_file: m_xgScalapack.F90
src_line: 251
message: |
    xgScalapack in auto mode
...


 getdim_nloc : deduce lmnmax  =   8, lnmax  =   2,
                      lmnmaxso=   8, lnmaxso=   2.
 Exchange-correlation functional for the present dataset will be:
  LDA: new Teter (4/93) with spin-polarized option - ixc=1
 Citation for XC functional:
  S. Goedecker, M. Teter, J. Huetter, PRB 54, 1703 (1996)

 Unit cell volume ucvol=  7.9610044E+01 bohr^3
 Angles (23,13,12)=  1.09471221E+02  1.09471221E+02  1.09471221E+02 degrees

 getcut: wavevector=  0.0000  0.0000  0.0000  ngfft=  18  18  18
         ecut(hartree)=     18.000   => boxcut(ratio)=   2.00790
 kpgio: loop on k-points done in parallel
 newkpt: spin channel isppol2 =     1
 wfconv:     8 bands initialized randomly with npw=   294, for ikpt=     1
 wfconv:     8 bands initialized randomly with npw=   296, for ikpt=     2
 wfconv:     8 bands initialized randomly with npw=   301, for ikpt=     3
 wfconv:     8 bands initialized randomly with npw=   286, for ikpt=     4
 wfconv:     8 bands initialized randomly with npw=   291, for ikpt=     5
 wfconv:     8 bands initialized randomly with npw=   281, for ikpt=     6
 newkpt: spin channel isppol2 =     2
_setup2: Arith. and geom. avg. npw (full set) are     290.438     290.380
 initro: for itypat=  1, take decay length=      0.8000,
 initro: indeed, coreel=     18.0000, nval=  8 and densty=  0.0000E+00.

================================================================================

 getcut: wavevector=  0.0000  0.0000  0.0000  ngfft=  18  18  18
         ecut(hartree)=     18.000   => boxcut(ratio)=   2.00790

 ITER STEP NUMBER     1
 vtorho : nnsclo_now=2, note that nnsclo,dbl_nnsclo,istep=0 0 1
 newocc: new Fermi energy is      -0.640737 , with nelect=      8.000000
  Number of bissection calls =  48
 newocc : computed new occupation numbers for occopt= 3
  (1) spin up   values
 1.000 1.000 1.000 1.000 1.000 0.000 0.000 0.000
 1.000 1.000 1.000 1.000 0.998 0.000 0.000 0.000
 1.000 1.000 1.000 1.000 1.000 0.003 0.000 0.000
 1.000 1.000 1.000 1.000 0.995 0.000 0.000 0.000
 1.000 1.000 1.000 0.999 0.978 0.000 0.000 0.000
 1.000 1.000 0.997 0.997 0.993 0.000 0.000 0.000
  (2) spin down values
 0.986 0.984 0.646 0.401 0.380 0.000 0.000 0.000
 0.994 0.978 0.459 0.337 0.066 0.000 0.000 0.000
 0.993 0.952 0.946 0.823 0.370 0.000 0.000 0.000
 0.982 0.966 0.600 0.343 0.032 0.000 0.000 0.000
 0.975 0.939 0.869 0.226 0.011 0.000 0.000 0.000
 0.979 0.939 0.064 0.060 0.031 0.000 0.000 0.000
mkrho: echo density (plane-wave part only)
 Total charge density [el/Bohr^3]
      Maximum=    9.4605E-01  at reduced coord.    0.7778    0.8889    0.8889
      Minimum=    2.0742E-04  at reduced coord.    0.0000    0.0000    0.0000
   Integrated=    8.0000E+00
 Spin up density      [el/Bohr^3]
      Maximum=    5.9166E-01  at reduced coord.    0.7778    0.8889    0.8889
      Minimum=    1.4185E-04  at reduced coord.    0.0000    0.0000    0.0000
   Integrated=    4.9934E+00
 Spin down density    [el/Bohr^3]
      Maximum=    3.5438E-01  at reduced coord.    0.7778    0.8889    0.8889
      Minimum=    6.5577E-05  at reduced coord.    0.0000    0.0000    0.0000
   Integrated=    3.0066E+00
 Magnetization (spin up - spin down) [el/Bohr^3]
      Maximum=    2.3969E-01  at reduced coord.    0.8333    0.8333    0.9444
      Minimum=    7.6269E-05  at reduced coord.    0.0000    0.0000    0.0000
   Integrated=    1.9868E+00
 Relative magnetization (=zeta, between -1 and 1)
      Maximum=    3.6770E-01  at reduced coord.    0.0000    0.0000    0.0000
      Minimum=    1.2466E-01  at reduced coord.    0.7222    0.4444    0.2222
 Total charge density [el/Bohr^3]
      Maximum=    9.4605E-01  at reduced coord.    0.7778    0.8889    0.8889
      Minimum=    2.0742E-04  at reduced coord.    0.0000    0.0000    0.0000
   Integrated=    8.0000E+00
 Spin up density      [el/Bohr^3]
      Maximum=    5.9166E-01  at reduced coord.    0.7778    0.8889    0.8889
      Minimum=    1.4185E-04  at reduced coord.    0.0000    0.0000    0.0000
   Integrated=    4.9934E+00
 Spin down density    [el/Bohr^3]
      Maximum=    3.5438E-01  at reduced coord.    0.7778    0.8889    0.8889
      Minimum=    6.5577E-05  at reduced coord.    0.0000    0.0000    0.0000
   Integrated=    3.0066E+00
 Magnetization (spin up - spin down) [el/Bohr^3]
      Maximum=    2.3969E-01  at reduced coord.    0.8333    0.8333    0.9444
      Minimum=    7.6269E-05  at reduced coord.    0.0000    0.0000    0.0000
   Integrated=    1.9868E+00
 Relative magnetization (=zeta, between -1 and 1)
      Maximum=    3.6770E-01  at reduced coord.    0.0000    0.0000    0.0000
      Minimum=    1.2466E-01  at reduced coord.    0.7222    0.4444    0.2222
  rhotov : is_hybrid_ncpp= F
  rhotov : n3xccc=        5832
 ETOT  1  -23.446225794160    -2.34E+01 4.28E-01 2.31E+03 1.987
 scprqt: <Vxc>= -4.2613691E-01 hartree

Simple mixing update:
  residual square of the potential :   1364.7792848324943
 scfcv_core: previous iteration took 00 [s]

 ITER STEP NUMBER     2
 vtorho : nnsclo_now=2, note that nnsclo,dbl_nnsclo,istep=0 0 2
 newocc: new Fermi energy is       0.049695 , with nelect=      8.000000
  Number of bissection calls =  48
 newocc : computed new occupation numbers for occopt= 3
  (1) spin up   values
 1.000 1.000 1.000 0.813 0.812 0.425 0.000 0.000
 1.000 1.000 1.000 0.659 0.520 0.000 0.000 0.000
 1.000 1.000 1.000 1.000 0.999 0.519 0.000 0.000
 1.000 1.000 1.000 0.995 0.379 0.023 0.000 0.000
 1.000 1.000 1.000 0.865 0.865 0.000 0.000 0.000
 1.000 1.000 0.992 0.992 0.557 0.036 0.000 0.000
  (2) spin down values
 1.000 1.000 1.000 0.014 0.014 0.003 0.000 0.000
 1.000 1.000 1.000 0.006 0.003 0.000 0.000 0.000
 1.000 0.997 0.997 0.985 0.895 0.003 0.000 0.000
 1.000 1.000 1.000 0.509 0.002 0.000 0.000 0.000
 1.000 1.000 1.000 0.028 0.028 0.000 0.000 0.000
 1.000 1.000 0.590 0.590 0.021 0.000 0.000 0.000
mkrho: echo density (plane-wave part only)
 Total charge density [el/Bohr^3]
      Maximum=    3.9750E-01  at reduced coord.    0.7778    0.8889    0.8889
      Minimum=    9.8784E-04  at reduced coord.    0.0000    0.0000    0.0000
   Integrated=    8.0000E+00
 Spin up density      [el/Bohr^3]
      Maximum=    2.8355E-01  at reduced coord.    0.0000    0.8333    0.8333
      Minimum=    5.2106E-04  at reduced coord.    0.0000    0.0000    0.0000
   Integrated=    4.6012E+00
 Spin down density    [el/Bohr^3]
      Maximum=    1.6513E-01  at reduced coord.    0.8333    0.8333    0.8333
      Minimum=    4.6678E-04  at reduced coord.    0.0000    0.0000    0.0000
   Integrated=    3.3988E+00
 Magnetization (spin up - spin down) [el/Bohr^3]
      Maximum=    1.9128E-01  at reduced coord.    0.0000    0.8333    0.8333
      Minimum=    5.4286E-05  at reduced coord.    0.0000    0.0000    0.0000
   Integrated=    1.2024E+00
 Relative magnetization (=zeta, between -1 and 1)
      Maximum=    5.1760E-01  at reduced coord.    0.0000    0.8889    0.8889
      Minimum=    1.3822E-03  at reduced coord.    0.7222    0.5000    0.2222
 Total charge density [el/Bohr^3]
      Maximum=    3.9750E-01  at reduced coord.    0.7778    0.8889    0.8889
      Minimum=    9.8784E-04  at reduced coord.    0.0000    0.0000    0.0000
   Integrated=    8.0000E+00
 Spin up density      [el/Bohr^3]
      Maximum=    2.8355E-01  at reduced coord.    0.0000    0.8333    0.8333
      Minimum=    5.2106E-04  at reduced coord.    0.0000    0.0000    0.0000
   Integrated=    4.6012E+00
 Spin down density    [el/Bohr^3]
      Maximum=    1.6513E-01  at reduced coord.    0.8333    0.8333    0.8333
      Minimum=    4.6678E-04  at reduced coord.    0.0000    0.0000    0.0000
   Integrated=    3.3988E+00
 Magnetization (spin up - spin down) [el/Bohr^3]
      Maximum=    1.9128E-01  at reduced coord.    0.0000    0.8333    0.8333
      Minimum=    5.4286E-05  at reduced coord.    0.0000    0.0000    0.0000
   Integrated=    1.2024E+00
 Relative magnetization (=zeta, between -1 and 1)
      Maximum=    5.1760E-01  at reduced coord.    0.0000    0.8889    0.8889
      Minimum=    1.3822E-03  at reduced coord.    0.7222    0.5000    0.2222
  rhotov : is_hybrid_ncpp= F
  rhotov : n3xccc=        5832
 ETOT  2  -23.953309472452    -5.07E-01 5.47E-03 1.29E+03 1.202
 scprqt: <Vxc>= -5.5297415E-01 hartree

 Pulay update with  1 previous iterations:
 mixing of old trial potential : alpha(m:m-4)=  0.572      0.428
 scfcv_core: previous iteration took 00 [s]

 ITER STEP NUMBER     3
 vtorho : nnsclo_now=1, note that nnsclo,dbl_nnsclo,istep=0 0 3
 newocc: new Fermi energy is      -0.309833 , with nelect=      8.000000
  Number of bissection calls =  49
 newocc : computed new occupation numbers for occopt= 3
  (1) spin up   values
 1.000 1.000 1.000 0.962 0.962 0.584 0.000 0.000
 1.000 1.000 1.000 0.960 0.936 0.000 0.000 0.000
 1.000 1.000 1.000 1.000 0.998 0.912 0.000 0.000
 1.000 1.000 1.000 0.980 0.243 0.243 0.000 0.000
 1.000 1.000 1.000 0.891 0.891 0.000 0.000 0.000
 1.000 1.000 0.785 0.785 0.412 0.000 0.000 0.000
  (2) spin down values
 1.000 0.999 0.999 0.074 0.074 0.012 0.000 0.000
 1.000 1.000 0.992 0.062 0.047 0.000 0.000 0.000
 1.000 0.990 0.983 0.983 0.662 0.029 0.000 0.000
 1.000 0.998 0.994 0.208 0.003 0.002 0.000 0.000
 1.000 1.000 0.999 0.047 0.047 0.000 0.000 0.000
 1.000 1.000 0.030 0.030 0.004 0.000 0.000 0.000
mkrho: echo density (plane-wave part only)
 Total charge density [el/Bohr^3]
      Maximum=    6.4570E-01  at reduced coord.    0.7778    0.8889    0.8889
      Minimum=    1.2637E-03  at reduced coord.    0.0000    0.0000    0.0000
   Integrated=    8.0000E+00
 Spin up density      [el/Bohr^3]
      Maximum=    4.3373E-01  at reduced coord.    0.0000    0.8333    0.8333
      Minimum=    6.6024E-04  at reduced coord.    0.0000    0.0000    0.0000
   Integrated=    4.8062E+00
 Spin down density    [el/Bohr^3]
      Maximum=    2.5496E-01  at reduced coord.    0.8333    0.8333    0.8333
      Minimum=    6.0346E-04  at reduced coord.    0.0000    0.0000    0.0000
   Integrated=    3.1938E+00
 Magnetization (spin up - spin down) [el/Bohr^3]
      Maximum=    2.6067E-01  at reduced coord.    0.0000    0.8333    0.8333
      Minimum=   -6.5275E-04  at reduced coord.    0.7222    0.5000    0.2222
   Integrated=    1.6125E+00
 Relative magnetization (=zeta, between -1 and 1)
      Maximum=    4.3325E-01  at reduced coord.    0.0000    0.8889    0.8889
      Minimum=   -1.8789E-02  at reduced coord.    0.7222    0.5000    0.2222
 Total charge density [el/Bohr^3]
      Maximum=    6.4570E-01  at reduced coord.    0.7778    0.8889    0.8889
      Minimum=    1.2637E-03  at reduced coord.    0.0000    0.0000    0.0000
   Integrated=    8.0000E+00
 Spin up density      [el/Bohr^3]
      Maximum=    4.3373E-01  at reduced coord.    0.0000    0.8333    0.8333
      Minimum=    6.6024E-04  at reduced coord.    0.0000    0.0000    0.0000
   Integrated=    4.8062E+00
 Spin down density    [el/Bohr^3]
      Maximum=    2.5496E-01  at reduced coord.    0.8333    0.8333    0.8333
      Minimum=    6.0346E-04  at reduced coord.    0.0000    0.0000    0.0000
   Integrated=    3.1938E+00
 Magnetization (spin up - spin down) [el/Bohr^3]
      Maximum=    2.6067E-01  at reduced coord.    0.0000    0.8333    0.8333
      Minimum=   -6.5275E-04  at reduced coord.    0.7222    0.5000    0.2222
   Integrated=    1.6125E+00
 Relative magnetization (=zeta, between -1 and 1)
      Maximum=    4.3325E-01  at reduced coord.    0.0000    0.8889    0.8889
      Minimum=   -1.8789E-02  at reduced coord.    0.7222    0.5000    0.2222
  rhotov : is_hybrid_ncpp= F
  rhotov : n3xccc=        5832
 ETOT  3  -24.663916285046    -7.11E-01 2.50E-02 9.36E+00 1.612
 scprqt: <Vxc>= -5.1326596E-01 hartree

 Pulay update with  2 previous iterations:
 mixing of old trial potential : alpha(m:m-4)=  0.909      0.796E-01  0.117E-01
 scfcv_core: previous iteration took 00 [s]

 ITER STEP NUMBER     4
 vtorho : nnsclo_now=1, note that nnsclo,dbl_nnsclo,istep=0 0 4
 newocc: new Fermi energy is      -0.256762 , with nelect=      8.000000
  Number of bissection calls =  48
 newocc : computed new occupation numbers for occopt= 3
  (1) spin up   values
 1.000 1.000 1.000 0.970 0.970 0.607 0.000 0.000
 1.000 1.000 1.000 0.968 0.946 0.000 0.000 0.000
 1.000 1.000 1.000 1.000 0.999 0.930 0.000 0.000
 1.000 1.000 1.000 0.984 0.353 0.238 0.000 0.000
 1.000 1.000 1.000 0.898 0.898 0.000 0.000 0.000
 1.000 1.000 0.795 0.795 0.401 0.000 0.000 0.000
  (2) spin down values
 1.000 0.999 0.999 0.042 0.042 0.009 0.000 0.000
 1.000 1.000 0.997 0.032 0.027 0.000 0.000 0.000
 1.000 0.987 0.978 0.978 0.559 0.016 0.000 0.000
 1.000 0.998 0.996 0.156 0.002 0.001 0.000 0.000
 1.000 1.000 1.000 0.031 0.031 0.000 0.000 0.000
 1.000 1.000 0.023 0.023 0.003 0.000 0.000 0.000
mkrho: echo density (plane-wave part only)
 Total charge density [el/Bohr^3]
      Maximum=    6.2940E-01  at reduced coord.    0.7778    0.8889    0.8889
      Minimum=    1.2300E-03  at reduced coord.    0.0000    0.0000    0.0000
   Integrated=    8.0000E+00
 Spin up density      [el/Bohr^3]
      Maximum=    4.3728E-01  at reduced coord.    0.0000    0.8333    0.8333
      Minimum=    6.4632E-04  at reduced coord.    0.0000    0.0000    0.0000
   Integrated=    4.8595E+00
 Spin down density    [el/Bohr^3]
      Maximum=    2.4478E-01  at reduced coord.    0.8333    0.8333    0.8333
      Minimum=    5.8371E-04  at reduced coord.    0.0000    0.0000    0.0000
   Integrated=    3.1405E+00
 Magnetization (spin up - spin down) [el/Bohr^3]
      Maximum=    2.8754E-01  at reduced coord.    0.0000    0.8333    0.8333
      Minimum=   -1.0792E-03  at reduced coord.    0.7222    0.5000    0.2222
   Integrated=    1.7190E+00
 Relative magnetization (=zeta, between -1 and 1)
      Maximum=    4.9445E-01  at reduced coord.    0.0000    0.8889    0.8889
      Minimum=   -2.8760E-02  at reduced coord.    0.7222    0.5000    0.2222
 Total charge density [el/Bohr^3]
      Maximum=    6.2940E-01  at reduced coord.    0.7778    0.8889    0.8889
      Minimum=    1.2300E-03  at reduced coord.    0.0000    0.0000    0.0000
   Integrated=    8.0000E+00
 Spin up density      [el/Bohr^3]
      Maximum=    4.3728E-01  at reduced coord.    0.0000    0.8333    0.8333
      Minimum=    6.4632E-04  at reduced coord.    0.0000    0.0000    0.0000
   Integrated=    4.8595E+00
 Spin down density    [el/Bohr^3]
      Maximum=    2.4478E-01  at reduced coord.    0.8333    0.8333    0.8333
      Minimum=    5.8371E-04  at reduced coord.    0.0000    0.0000    0.0000
   Integrated=    3.1405E+00
 Magnetization (spin up - spin down) [el/Bohr^3]
      Maximum=    2.8754E-01  at reduced coord.    0.0000    0.8333    0.8333
      Minimum=   -1.0792E-03  at reduced coord.    0.7222    0.5000    0.2222
   Integrated=    1.7190E+00
 Relative magnetization (=zeta, between -1 and 1)
      Maximum=    4.9445E-01  at reduced coord.    0.0000    0.8889    0.8889
      Minimum=   -2.8760E-02  at reduced coord.    0.7222    0.5000    0.2222
  rhotov : is_hybrid_ncpp= F
  rhotov : n3xccc=        5832
 ETOT  4  -24.669923700628    -6.01E-03 1.50E-02 1.21E-01 1.719
 scprqt: <Vxc>= -5.1692960E-01 hartree

 Pulay update with  3 previous iterations:
 mixing of old trial potential : alpha(m:m-4)=   1.18     -0.200      0.475E-02  0.153E-01
 scfcv_core: previous iteration took 00 [s]

 ITER STEP NUMBER     5
 vtorho : nnsclo_now=1, note that nnsclo,dbl_nnsclo,istep=0 0 5
 newocc: new Fermi energy is      -0.263359 , with nelect=      8.000000
  Number of bissection calls =  49
 newocc : computed new occupation numbers for occopt= 3
  (1) spin up   values
 1.000 1.000 1.000 0.978 0.978 0.649 0.000 0.000
 1.000 1.000 1.000 0.977 0.960 0.000 0.000 0.000
 1.000 1.000 1.000 1.000 0.999 0.950 0.000 0.000
 1.000 1.000 1.000 0.987 0.390 0.281 0.000 0.000
 1.000 1.000 1.000 0.917 0.917 0.000 0.000 0.000
 1.000 1.000 0.822 0.822 0.457 0.000 0.000 0.000
  (2) spin down values
 1.000 0.999 0.999 0.023 0.023 0.005 0.000 0.000
 1.000 1.000 0.995 0.017 0.014 0.000 0.000 0.000
 1.000 0.978 0.965 0.965 0.403 0.008 0.000 0.000
 1.000 0.997 0.994 0.094 0.001 0.001 0.000 0.000
 1.000 1.000 0.999 0.018 0.018 0.000 0.000 0.000
 1.000 1.000 0.014 0.014 0.002 0.000 0.000 0.000
mkrho: echo density (plane-wave part only)
 Total charge density [el/Bohr^3]
      Maximum=    6.3269E-01  at reduced coord.    0.7778    0.8889    0.8889
      Minimum=    1.2333E-03  at reduced coord.    0.0000    0.0000    0.0000
   Integrated=    8.0000E+00
 Spin up density      [el/Bohr^3]
      Maximum=    4.4585E-01  at reduced coord.    0.0000    0.8333    0.8333
      Minimum=    6.5079E-04  at reduced coord.    0.0000    0.0000    0.0000
   Integrated=    4.9196E+00
 Spin down density    [el/Bohr^3]
      Maximum=    2.4123E-01  at reduced coord.    0.8333    0.8333    0.8333
      Minimum=    5.8249E-04  at reduced coord.    0.0000    0.0000    0.0000
   Integrated=    3.0804E+00
 Magnetization (spin up - spin down) [el/Bohr^3]
      Maximum=    3.0816E-01  at reduced coord.    0.0000    0.8333    0.8333
      Minimum=   -1.3864E-03  at reduced coord.    0.7222    0.5000    0.2222
   Integrated=    1.8392E+00
 Relative magnetization (=zeta, between -1 and 1)
      Maximum=    5.3318E-01  at reduced coord.    0.0000    0.8889    0.8889
      Minimum=   -3.7002E-02  at reduced coord.    0.7222    0.5000    0.2222
 Total charge density [el/Bohr^3]
      Maximum=    6.3269E-01  at reduced coord.    0.7778    0.8889    0.8889
      Minimum=    1.2333E-03  at reduced coord.    0.0000    0.0000    0.0000
   Integrated=    8.0000E+00
 Spin up density      [el/Bohr^3]
      Maximum=    4.4585E-01  at reduced coord.    0.0000    0.8333    0.8333
      Minimum=    6.5079E-04  at reduced coord.    0.0000    0.0000    0.0000
   Integrated=    4.9196E+00
 Spin down density    [el/Bohr^3]
      Maximum=    2.4123E-01  at reduced coord.    0.8333    0.8333    0.8333
      Minimum=    5.8249E-04  at reduced coord.    0.0000    0.0000    0.0000
   Integrated=    3.0804E+00
 Magnetization (spin up - spin down) [el/Bohr^3]
      Maximum=    3.0816E-01  at reduced coord.    0.0000    0.8333    0.8333
      Minimum=   -1.3864E-03  at reduced coord.    0.7222    0.5000    0.2222
   Integrated=    1.8392E+00
 Relative magnetization (=zeta, between -1 and 1)
      Maximum=    5.3318E-01  at reduced coord.    0.0000    0.8889    0.8889
      Minimum=   -3.7002E-02  at reduced coord.    0.7222    0.5000    0.2222
  rhotov : is_hybrid_ncpp= F
  rhotov : n3xccc=        5832
 ETOT  5  -24.670510785184    -5.87E-04 1.11E-03 6.92E-02 1.839
 scprqt: <Vxc>= -5.1657899E-01 hartree

 Pulay update with  4 previous iterations:
 mixing of old trial potential : alpha(m:m-4)=   2.38      -1.53      0.136      0.196E-01 -0.340E-02
 scfcv_core: previous iteration took 00 [s]

 ITER STEP NUMBER     6
 vtorho : nnsclo_now=1, note that nnsclo,dbl_nnsclo,istep=0 0 6
 newocc: new Fermi energy is      -0.264018 , with nelect=      8.000000
  Number of bissection calls =  48
 newocc : computed new occupation numbers for occopt= 3
  (1) spin up   values
 1.000 1.000 1.000 0.984 0.984 0.692 0.000 0.000
 1.000 1.000 1.000 0.984 0.970 0.000 0.000 0.000
 1.000 1.000 1.000 1.000 0.999 0.964 0.000 0.000
 1.000 1.000 1.000 0.990 0.442 0.328 0.000 0.000
 1.000 1.000 1.000 0.933 0.933 0.000 0.000 0.000
 1.000 1.000 0.849 0.849 0.512 0.000 0.000 0.000
  (2) spin down values
 1.000 0.997 0.997 0.009 0.009 0.002 0.000 0.000
 1.000 1.000 0.993 0.006 0.006 0.000 0.000 0.000
 1.000 0.950 0.924 0.924 0.217 0.003 0.000 0.000
 1.000 0.994 0.989 0.042 0.000 0.000 0.000 0.000
 1.000 1.000 0.998 0.008 0.008 0.000 0.000 0.000
 1.000 1.000 0.006 0.006 0.001 0.000 0.000 0.000
mkrho: echo density (plane-wave part only)
 Total charge density [el/Bohr^3]
      Maximum=    6.3305E-01  at reduced coord.    0.8333    0.8333    0.8333
      Minimum=    1.2369E-03  at reduced coord.    0.0000    0.0000    0.0000
   Integrated=    8.0000E+00
 Spin up density      [el/Bohr^3]
      Maximum=    4.5316E-01  at reduced coord.    0.0000    0.8333    0.8333
      Minimum=    6.5626E-04  at reduced coord.    0.0000    0.0000    0.0000
   Integrated=    4.9833E+00
 Spin down density    [el/Bohr^3]
      Maximum=    2.3447E-01  at reduced coord.    0.8333    0.8333    0.8333
      Minimum=    5.8060E-04  at reduced coord.    0.0000    0.0000    0.0000
   Integrated=    3.0167E+00
 Magnetization (spin up - spin down) [el/Bohr^3]
      Maximum=    3.2844E-01  at reduced coord.    0.0000    0.8333    0.8333
      Minimum=   -1.7907E-03  at reduced coord.    0.7222    0.5000    0.2222
   Integrated=    1.9667E+00
 Relative magnetization (=zeta, between -1 and 1)
      Maximum=    5.7401E-01  at reduced coord.    0.0000    0.8889    0.8889
      Minimum=   -4.7449E-02  at reduced coord.    0.7222    0.5000    0.2222
 Total charge density [el/Bohr^3]
      Maximum=    6.3305E-01  at reduced coord.    0.8333    0.8333    0.8333
      Minimum=    1.2369E-03  at reduced coord.    0.0000    0.0000    0.0000
   Integrated=    8.0000E+00
 Spin up density      [el/Bohr^3]
      Maximum=    4.5316E-01  at reduced coord.    0.0000    0.8333    0.8333
      Minimum=    6.5626E-04  at reduced coord.    0.0000    0.0000    0.0000
   Integrated=    4.9833E+00
 Spin down density    [el/Bohr^3]
      Maximum=    2.3447E-01  at reduced coord.    0.8333    0.8333    0.8333
      Minimum=    5.8060E-04  at reduced coord.    0.0000    0.0000    0.0000
   Integrated=    3.0167E+00
 Magnetization (spin up - spin down) [el/Bohr^3]
      Maximum=    3.2844E-01  at reduced coord.    0.0000    0.8333    0.8333
      Minimum=   -1.7907E-03  at reduced coord.    0.7222    0.5000    0.2222
   Integrated=    1.9667E+00
 Relative magnetization (=zeta, between -1 and 1)
      Maximum=    5.7401E-01  at reduced coord.    0.0000    0.8889    0.8889
      Minimum=   -4.7449E-02  at reduced coord.    0.7222    0.5000    0.2222
  rhotov : is_hybrid_ncpp= F
  rhotov : n3xccc=        5832
 ETOT  6  -24.670787522323    -2.77E-04 1.51E-04 8.53E-03 1.967
 scprqt: <Vxc>= -5.1685126E-01 hartree

 Pulay update with  5 previous iterations:
 mixing of old trial potential : alpha(m:m-4)=   1.10     -0.251      0.167     -0.548E-02 -0.768E-02
 scfcv_core: previous iteration took 00 [s]

 ITER STEP NUMBER     7
 vtorho : nnsclo_now=1, note that nnsclo,dbl_nnsclo,istep=0 0 7
 newocc: new Fermi energy is      -0.264811 , with nelect=      8.000000
  Number of bissection calls =  49
 newocc : computed new occupation numbers for occopt= 3
  (1) spin up   values
 1.000 1.000 1.000 0.984 0.984 0.694 0.000 0.000
 1.000 1.000 1.000 0.984 0.970 0.000 0.000 0.000
 1.000 1.000 1.000 1.000 0.999 0.963 0.000 0.000
 1.000 1.000 1.000 0.990 0.435 0.332 0.000 0.000
 1.000 1.000 1.000 0.933 0.933 0.000 0.000 0.000
 1.000 1.000 0.850 0.850 0.516 0.000 0.000 0.000
  (2) spin down values
 1.000 0.997 0.997 0.009 0.009 0.002 0.000 0.000
 1.000 1.000 0.992 0.006 0.006 0.000 0.000 0.000
 1.000 0.950 0.924 0.924 0.219 0.003 0.000 0.000
 1.000 0.994 0.989 0.042 0.000 0.000 0.000 0.000
 1.000 1.000 0.998 0.008 0.008 0.000 0.000 0.000
 1.000 1.000 0.006 0.006 0.001 0.000 0.000 0.000
mkrho: echo density (plane-wave part only)
 Total charge density [el/Bohr^3]
      Maximum=    6.3404E-01  at reduced coord.    0.8333    0.8333    0.8333
      Minimum=    1.2373E-03  at reduced coord.    0.0000    0.0000    0.0000
   Integrated=    8.0000E+00
 Spin up density      [el/Bohr^3]
      Maximum=    4.5296E-01  at reduced coord.    0.0000    0.8333    0.8333
      Minimum=    6.5627E-04  at reduced coord.    0.0000    0.0000    0.0000
   Integrated=    4.9831E+00
 Spin down density    [el/Bohr^3]
      Maximum=    2.3465E-01  at reduced coord.    0.8333    0.8333    0.8333
      Minimum=    5.8099E-04  at reduced coord.    0.0000    0.0000    0.0000
   Integrated=    3.0169E+00
 Magnetization (spin up - spin down) [el/Bohr^3]
      Maximum=    3.2790E-01  at reduced coord.    0.0000    0.8333    0.8333
      Minimum=   -1.8118E-03  at reduced coord.    0.7222    0.5000    0.2222
   Integrated=    1.9661E+00
 Relative magnetization (=zeta, between -1 and 1)
      Maximum=    5.7295E-01  at reduced coord.    0.0000    0.8889    0.8889
      Minimum=   -4.8101E-02  at reduced coord.    0.7222    0.5000    0.2222
 Total charge density [el/Bohr^3]
      Maximum=    6.3404E-01  at reduced coord.    0.8333    0.8333    0.8333
      Minimum=    1.2373E-03  at reduced coord.    0.0000    0.0000    0.0000
   Integrated=    8.0000E+00
 Spin up density      [el/Bohr^3]
      Maximum=    4.5296E-01  at reduced coord.    0.0000    0.8333    0.8333
      Minimum=    6.5627E-04  at reduced coord.    0.0000    0.0000    0.0000
   Integrated=    4.9831E+00
 Spin down density    [el/Bohr^3]
      Maximum=    2.3465E-01  at reduced coord.    0.8333    0.8333    0.8333
      Minimum=    5.8099E-04  at reduced coord.    0.0000    0.0000    0.0000
   Integrated=    3.0169E+00
 Magnetization (spin up - spin down) [el/Bohr^3]
      Maximum=    3.2790E-01  at reduced coord.    0.0000    0.8333    0.8333
      Minimum=   -1.8118E-03  at reduced coord.    0.7222    0.5000    0.2222
   Integrated=    1.9661E+00
 Relative magnetization (=zeta, between -1 and 1)
      Maximum=    5.7295E-01  at reduced coord.    0.0000    0.8889    0.8889
      Minimum=   -4.8101E-02  at reduced coord.    0.7222    0.5000    0.2222
  rhotov : is_hybrid_ncpp= F
  rhotov : n3xccc=        5832
 ETOT  7  -24.670792791367    -5.27E-06 1.33E-04 9.89E-05 1.966
 scprqt: <Vxc>= -5.1673000E-01 hartree

 Pulay update with  6 previous iterations:
 mixing of old trial potential : alpha(m:m-4)=   1.06     -0.239E-01 -0.773E-01  0.356E-01  0.397E-02
 scfcv_core: previous iteration took 00 [s]

 ITER STEP NUMBER     8
 vtorho : nnsclo_now=1, note that nnsclo,dbl_nnsclo,istep=0 0 8
 newocc: new Fermi energy is      -0.264669 , with nelect=      8.000000
  Number of bissection calls =  48
 newocc : computed new occupation numbers for occopt= 3
  (1) spin up   values
 1.000 1.000 1.000 0.984 0.984 0.694 0.000 0.000
 1.000 1.000 1.000 0.984 0.970 0.000 0.000 0.000
 1.000 1.000 1.000 1.000 0.999 0.963 0.000 0.000
 1.000 1.000 1.000 0.990 0.435 0.332 0.000 0.000
 1.000 1.000 1.000 0.933 0.933 0.000 0.000 0.000
 1.000 1.000 0.851 0.851 0.517 0.000 0.000 0.000
  (2) spin down values
 1.000 0.997 0.997 0.009 0.009 0.002 0.000 0.000
 1.000 1.000 0.992 0.006 0.006 0.000 0.000 0.000
 1.000 0.950 0.923 0.923 0.218 0.003 0.000 0.000
 1.000 0.994 0.989 0.042 0.000 0.000 0.000 0.000
 1.000 1.000 0.998 0.008 0.008 0.000 0.000 0.000
 1.000 1.000 0.006 0.006 0.001 0.000 0.000 0.000
mkrho: echo density (plane-wave part only)
 Total charge density [el/Bohr^3]
      Maximum=    6.3397E-01  at reduced coord.    0.8333    0.8333    0.8333
      Minimum=    1.2372E-03  at reduced coord.    0.0000    0.0000    0.0000
   Integrated=    8.0000E+00
 Spin up density      [el/Bohr^3]
      Maximum=    4.5294E-01  at reduced coord.    0.0000    0.8333    0.8333
      Minimum=    6.5627E-04  at reduced coord.    0.0000    0.0000    0.0000
   Integrated=    4.9834E+00
 Spin down density    [el/Bohr^3]
      Maximum=    2.3452E-01  at reduced coord.    0.8333    0.8333    0.8333
      Minimum=    5.8095E-04  at reduced coord.    0.0000    0.0000    0.0000
   Integrated=    3.0166E+00
 Magnetization (spin up - spin down) [el/Bohr^3]
      Maximum=    3.2790E-01  at reduced coord.    0.0000    0.8333    0.8333
      Minimum=   -1.8181E-03  at reduced coord.    0.7222    0.5000    0.2222
   Integrated=    1.9669E+00
 Relative magnetization (=zeta, between -1 and 1)
      Maximum=    5.7297E-01  at reduced coord.    0.0000    0.8889    0.8889
      Minimum=   -4.8266E-02  at reduced coord.    0.7222    0.5000    0.2222
 Total charge density [el/Bohr^3]
      Maximum=    6.3397E-01  at reduced coord.    0.8333    0.8333    0.8333
      Minimum=    1.2372E-03  at reduced coord.    0.0000    0.0000    0.0000
   Integrated=    8.0000E+00
 Spin up density      [el/Bohr^3]
      Maximum=    4.5294E-01  at reduced coord.    0.0000    0.8333    0.8333
      Minimum=    6.5627E-04  at reduced coord.    0.0000    0.0000    0.0000
   Integrated=    4.9834E+00
 Spin down density    [el/Bohr^3]
      Maximum=    2.3452E-01  at reduced coord.    0.8333    0.8333    0.8333
      Minimum=    5.8095E-04  at reduced coord.    0.0000    0.0000    0.0000
   Integrated=    3.0166E+00
 Magnetization (spin up - spin down) [el/Bohr^3]
      Maximum=    3.2790E-01  at reduced coord.    0.0000    0.8333    0.8333
      Minimum=   -1.8181E-03  at reduced coord.    0.7222    0.5000    0.2222
   Integrated=    1.9669E+00
 Relative magnetization (=zeta, between -1 and 1)
      Maximum=    5.7297E-01  at reduced coord.    0.0000    0.8889    0.8889
      Minimum=   -4.8266E-02  at reduced coord.    0.7222    0.5000    0.2222
  rhotov : is_hybrid_ncpp= F
  rhotov : n3xccc=        5832
 ETOT  8  -24.670792855569    -6.42E-08 2.42E-05 1.47E-05 1.967
 scprqt: <Vxc>= -5.1673750E-01 hartree

 Pulay update with  7 previous iterations:
 mixing of old trial potential : alpha(m:m-4)=   1.12     -0.107     -0.134E-01  0.498E-02 -0.692E-02
 scfcv_core: previous iteration took 00 [s]

 ITER STEP NUMBER     9
 vtorho : nnsclo_now=1, note that nnsclo,dbl_nnsclo,istep=0 0 9
 newocc: new Fermi energy is      -0.264712 , with nelect=      8.000000
  Number of bissection calls =  49
 newocc : computed new occupation numbers for occopt= 3
  (1) spin up   values
 1.000 1.000 1.000 0.984 0.984 0.695 0.000 0.000
 1.000 1.000 1.000 0.984 0.970 0.000 0.000 0.000
 1.000 1.000 1.000 1.000 0.999 0.963 0.000 0.000
 1.000 1.000 1.000 0.990 0.435 0.333 0.000 0.000
 1.000 1.000 1.000 0.933 0.933 0.000 0.000 0.000
 1.000 1.000 0.851 0.851 0.517 0.000 0.000 0.000
  (2) spin down values
 1.000 0.997 0.997 0.009 0.009 0.002 0.000 0.000
 1.000 1.000 0.992 0.006 0.006 0.000 0.000 0.000
 1.000 0.950 0.923 0.923 0.218 0.003 0.000 0.000
 1.000 0.994 0.989 0.042 0.000 0.000 0.000 0.000
 1.000 1.000 0.998 0.008 0.008 0.000 0.000 0.000
 1.000 1.000 0.006 0.006 0.001 0.000 0.000 0.000
mkrho: echo density (plane-wave part only)
 Total charge density [el/Bohr^3]
      Maximum=    6.3401E-01  at reduced coord.    0.8333    0.8333    0.8333
      Minimum=    1.2373E-03  at reduced coord.    0.0000    0.0000    0.0000
   Integrated=    8.0000E+00
 Spin up density      [el/Bohr^3]
      Maximum=    4.5297E-01  at reduced coord.    0.0000    0.8333    0.8333
      Minimum=    6.5629E-04  at reduced coord.    0.0000    0.0000    0.0000
   Integrated=    4.9837E+00
 Spin down density    [el/Bohr^3]
      Maximum=    2.3449E-01  at reduced coord.    0.8333    0.8333    0.8333
      Minimum=    5.8097E-04  at reduced coord.    0.0000    0.0000    0.0000
   Integrated=    3.0163E+00
 Magnetization (spin up - spin down) [el/Bohr^3]
      Maximum=    3.2795E-01  at reduced coord.    0.0000    0.8333    0.8333
      Minimum=   -1.8203E-03  at reduced coord.    0.7222    0.5000    0.2222
   Integrated=    1.9675E+00
 Relative magnetization (=zeta, between -1 and 1)
      Maximum=    5.7307E-01  at reduced coord.    0.0000    0.8889    0.8889
      Minimum=   -4.8327E-02  at reduced coord.    0.7222    0.5000    0.2222
 Total charge density [el/Bohr^3]
      Maximum=    6.3401E-01  at reduced coord.    0.8333    0.8333    0.8333
      Minimum=    1.2373E-03  at reduced coord.    0.0000    0.0000    0.0000
   Integrated=    8.0000E+00
 Spin up density      [el/Bohr^3]
      Maximum=    4.5297E-01  at reduced coord.    0.0000    0.8333    0.8333
      Minimum=    6.5629E-04  at reduced coord.    0.0000    0.0000    0.0000
   Integrated=    4.9837E+00
 Spin down density    [el/Bohr^3]
      Maximum=    2.3449E-01  at reduced coord.    0.8333    0.8333    0.8333
      Minimum=    5.8097E-04  at reduced coord.    0.0000    0.0000    0.0000
   Integrated=    3.0163E+00
 Magnetization (spin up - spin down) [el/Bohr^3]
      Maximum=    3.2795E-01  at reduced coord.    0.0000    0.8333    0.8333
      Minimum=   -1.8203E-03  at reduced coord.    0.7222    0.5000    0.2222
   Integrated=    1.9675E+00
 Relative magnetization (=zeta, between -1 and 1)
      Maximum=    5.7307E-01  at reduced coord.    0.0000    0.8889    0.8889
      Minimum=   -4.8327E-02  at reduced coord.    0.7222    0.5000    0.2222
  rhotov : is_hybrid_ncpp= F
  rhotov : n3xccc=        5832
 ETOT  9  -24.670792867732    -1.22E-08 1.55E-05 1.52E-07 1.967
 scprqt: <Vxc>= -5.1673243E-01 hartree

 Pulay update with  7 previous iterations:
 mixing of old trial potential : alpha(m:m-4)=   1.20     -0.214      0.919E-02 -0.861E-03  0.782E-03
 scfcv_core: previous iteration took 00 [s]

 ITER STEP NUMBER    10
 vtorho : nnsclo_now=1, note that nnsclo,dbl_nnsclo,istep=0 0 10
 newocc: new Fermi energy is      -0.264706 , with nelect=      8.000000
  Number of bissection calls =  49
 newocc : computed new occupation numbers for occopt= 3
  (1) spin up   values
 1.000 1.000 1.000 0.984 0.984 0.695 0.000 0.000
 1.000 1.000 1.000 0.984 0.970 0.000 0.000 0.000
 1.000 1.000 1.000 1.000 0.999 0.963 0.000 0.000
 1.000 1.000 1.000 0.990 0.435 0.333 0.000 0.000
 1.000 1.000 1.000 0.933 0.933 0.000 0.000 0.000
 1.000 1.000 0.851 0.851 0.517 0.000 0.000 0.000
  (2) spin down values
 1.000 0.997 0.997 0.009 0.009 0.002 0.000 0.000
 1.000 1.000 0.992 0.006 0.006 0.000 0.000 0.000
 1.000 0.950 0.923 0.923 0.218 0.003 0.000 0.000
 1.000 0.994 0.989 0.042 0.000 0.000 0.000 0.000
 1.000 1.000 0.998 0.008 0.008 0.000 0.000 0.000
 1.000 1.000 0.006 0.006 0.001 0.000 0.000 0.000
mkrho: echo density (plane-wave part only)
 Total charge density [el/Bohr^3]
      Maximum=    6.3401E-01  at reduced coord.    0.8333    0.8333    0.8333
      Minimum=    1.2373E-03  at reduced coord.    0.0000    0.0000    0.0000
   Integrated=    8.0000E+00
 Spin up density      [el/Bohr^3]
      Maximum=    4.5297E-01  at reduced coord.    0.0000    0.8333    0.8333
      Minimum=    6.5629E-04  at reduced coord.    0.0000    0.0000    0.0000
   Integrated=    4.9837E+00
 Spin down density    [el/Bohr^3]
      Maximum=    2.3449E-01  at reduced coord.    0.8333    0.8333    0.8333
      Minimum=    5.8096E-04  at reduced coord.    0.0000    0.0000    0.0000
   Integrated=    3.0163E+00
 Magnetization (spin up - spin down) [el/Bohr^3]
      Maximum=    3.2795E-01  at reduced coord.    0.0000    0.8333    0.8333
      Minimum=   -1.8203E-03  at reduced coord.    0.7222    0.5000    0.2222
   Integrated=    1.9674E+00
 Relative magnetization (=zeta, between -1 and 1)
      Maximum=    5.7306E-01  at reduced coord.    0.0000    0.8889    0.8889
      Minimum=   -4.8328E-02  at reduced coord.    0.7222    0.5000    0.2222
 Total charge density [el/Bohr^3]
      Maximum=    6.3401E-01  at reduced coord.    0.8333    0.8333    0.8333
      Minimum=    1.2373E-03  at reduced coord.    0.0000    0.0000    0.0000
   Integrated=    8.0000E+00
 Spin up density      [el/Bohr^3]
      Maximum=    4.5297E-01  at reduced coord.    0.0000    0.8333    0.8333
      Minimum=    6.5629E-04  at reduced coord.    0.0000    0.0000    0.0000
   Integrated=    4.9837E+00
 Spin down density    [el/Bohr^3]
      Maximum=    2.3449E-01  at reduced coord.    0.8333    0.8333    0.8333
      Minimum=    5.8096E-04  at reduced coord.    0.0000    0.0000    0.0000
   Integrated=    3.0163E+00
 Magnetization (spin up - spin down) [el/Bohr^3]
      Maximum=    3.2795E-01  at reduced coord.    0.0000    0.8333    0.8333
      Minimum=   -1.8203E-03  at reduced coord.    0.7222    0.5000    0.2222
   Integrated=    1.9674E+00
 Relative magnetization (=zeta, between -1 and 1)
      Maximum=    5.7306E-01  at reduced coord.    0.0000    0.8889    0.8889
      Minimum=   -4.8328E-02  at reduced coord.    0.7222    0.5000    0.2222
  rhotov : is_hybrid_ncpp= F
  rhotov : n3xccc=        5832
 ETOT 10  -24.670792867745    -1.29E-11 5.14E-06 3.33E-08 1.967
 scprqt: <Vxc>= -5.1673243E-01 hartree

 Pulay update with  7 previous iterations:
[...]
  2.11E-14 7.36E-15 2.04E-14 3.66E-15 1.82E-14 2.22E-15 2.12E-14 5.44E-10
  -0.3750 -0.3750  0.1250    1  2.40438E-14 kpt; spin; max resid(k); each band:
  1.99E-14 1.99E-14 1.32E-14 4.52E-15 4.52E-15 2.40E-14 2.40E-14 1.32E-14
  -0.3750  0.3750  0.3750    1  1.32506E-14 kpt; spin; max resid(k); each band:
  1.33E-14 4.65E-16 1.02E-14 1.02E-14 8.60E-17 1.32E-14 1.02E-14 1.02E-14
   0.1250  0.1250  0.1250    2  2.20167E-07 kpt; spin; max resid(k); each band:
  1.24E-15 5.83E-15 5.83E-15 1.35E-15 1.35E-15 1.77E-15 7.10E-15 2.20E-07
   0.3750  0.1250  0.1250    2  1.17912E-06 kpt; spin; max resid(k); each band:
  9.72E-15 5.21E-16 8.03E-15 1.38E-16 9.58E-16 8.03E-15 8.47E-15 1.18E-06
  -0.1250  0.1250  0.1250    2  2.25312E-06 kpt; spin; max resid(k); each band:
  2.25E-16 2.74E-17 2.12E-16 4.37E-16 7.99E-15 7.88E-16 1.31E-10 2.25E-06
  -0.3750  0.3750  0.1250    2  7.10817E-09 kpt; spin; max resid(k); each band:
  6.62E-15 2.67E-15 1.07E-14 1.50E-15 6.16E-15 9.42E-16 8.35E-15 7.11E-09
  -0.3750 -0.3750  0.1250    2  1.15082E-14 kpt; spin; max resid(k); each band:
  1.15E-14 1.15E-14 4.51E-15 1.43E-15 1.43E-15 1.07E-14 1.07E-14 4.51E-15
  -0.3750  0.3750  0.3750    2  8.66809E-15 kpt; spin; max resid(k); each band:
  8.61E-15 8.28E-17 4.11E-15 4.11E-15 7.20E-17 8.67E-15 4.09E-15 4.09E-15

 outwf: write wavefunction to file tspin_1o_DS2_WFK, with iomode -1
 outwf with iomode: -1, cpu_time:     0.00[s], walltime:     0.00 [s]
 prteigrs : about to open file tspin_1o_DS2_EIG
 Fermi (or HOMO) energy (hartree) =  -0.26471   Average Vxc (hartree)=  -0.51673
 Magnetization (Bohr magneton)=  1.96743463E+00
 Total spin up =  4.98371731E+00   Total spin down =  3.01628269E+00
 Eigenvalues (hartree) for nkpt=   6  k points, SPIN UP:
 kpt#   1, nband=  8, wtk=  0.12500, kpt=  0.1250  0.1250  0.1250 (reduced coord)
  -0.48411   -0.38615   -0.38615   -0.30587   -0.30587   -0.27293    0.33747    0.33747
      occupation numbers for kpt#   1
   1.00000    0.99999    0.99999    0.98396    0.98396    0.69467    0.00000    0.00000
 kpt#   2, nband=  8, wtk=  0.18750, kpt=  0.3750  0.1250  0.1250 (reduced coord)
  -0.43050   -0.40581   -0.35505   -0.30565   -0.29952   -0.13308   -0.00401    0.24171
      occupation numbers for kpt#   2
   1.00000    1.00000    0.99988    0.98361    0.97015    0.00000    0.00000    0.00000
 kpt#   3, nband=  8, wtk=  0.09375, kpt= -0.1250  0.1250  0.1250 (reduced coord)
  -0.56028   -0.36286   -0.35596   -0.35596   -0.33680   -0.29738    0.54030    0.59436
      occupation numbers for kpt#   3
   1.00000    0.99995    0.99989    0.99989    0.99926    0.96329    0.00000    0.00000
 kpt#   4, nband=  8, wtk=  0.37500, kpt= -0.3750  0.3750  0.1250 (reduced coord)
  -0.44902   -0.37859   -0.36635   -0.31080   -0.26210   -0.25774    0.11693    0.38343
      occupation numbers for kpt#   4
   1.00000    0.99999    0.99996    0.99014    0.43533    0.33263    0.00000    0.00000
 kpt#   5, nband=  8, wtk=  0.12500, kpt= -0.3750 -0.3750  0.1250 (reduced coord)
  -0.40239   -0.40239   -0.38775   -0.29110   -0.29110   -0.02017   -0.02017    0.05268
      occupation numbers for kpt#   5
   1.00000    1.00000    1.00000    0.93338    0.93338    0.00000    0.00000    0.00000
 kpt#   6, nband=  8, wtk=  0.09375, kpt= -0.3750  0.3750  0.3750 (reduced coord)
  -0.43218   -0.42089   -0.28211   -0.28211   -0.26539   -0.11521    0.15139    0.15139
      occupation numbers for kpt#   6
   1.00000    1.00000    0.85081    0.85081    0.51718    0.00000    0.00000    0.00000
 Eigenvalues (hartree) for nkpt=   6  k points, SPIN DOWN:
 kpt#   1, nband=  8, wtk=  0.12500, kpt=  0.1250  0.1250  0.1250 (reduced coord)
  -0.46637   -0.32383   -0.32383   -0.21767   -0.21767   -0.20371    0.36261    0.36261
      occupation numbers for kpt#   1
   1.00000    0.99730    0.99730    0.00898    0.00898    0.00224    0.00000    0.00000
 kpt#   2, nband=  8, wtk=  0.18750, kpt=  0.3750  0.1250  0.1250 (reduced coord)
  -0.38007   -0.34663   -0.31337   -0.21419   -0.21297   -0.08571    0.04004    0.26787
      occupation numbers for kpt#   2
   0.99999    0.99972    0.99236    0.00636    0.00563    0.00000    0.00000    0.00000
 kpt#   3, nband=  8, wtk=  0.09375, kpt= -0.1250  0.1250  0.1250 (reduced coord)
  -0.54570   -0.29410   -0.28953   -0.28953   -0.25191   -0.20706    0.55508    0.61701
      occupation numbers for kpt#   3
   1.00000    0.94974    0.92292    0.92292    0.21758    0.00313    0.00000    0.00000
 kpt#   4, nband=  8, wtk=  0.37500, kpt= -0.3750  0.3750  0.1250 (reduced coord)
  -0.41468   -0.31507   -0.30952   -0.23338   -0.18841   -0.18354    0.15424    0.40953
      occupation numbers for kpt#   4
   1.00000    0.99355    0.98881    0.04178    0.00049    0.00030    0.00000    0.00000
 kpt#   5, nband=  8, wtk=  0.12500, kpt= -0.3750 -0.3750  0.1250 (reduced coord)
  -0.34311   -0.34311   -0.32904   -0.21595   -0.21595    0.02085    0.02085    0.08657
      occupation numbers for kpt#   5
   0.99961    0.99961    0.99840    0.00757    0.00757    0.00000    0.00000    0.00000
 kpt#   6, nband=  8, wtk=  0.09375, kpt= -0.3750  0.3750  0.3750 (reduced coord)
  -0.37452   -0.35391   -0.21390   -0.21390   -0.19116   -0.07815    0.17586    0.17586
      occupation numbers for kpt#   6
   0.99998    0.99987    0.00618    0.00618    0.00064    0.00000    0.00000    0.00000
 Total charge density [el/Bohr^3]
      Maximum=    6.3401E-01  at reduced coord.    0.8333    0.8333    0.8333
 Next maximum=    6.3401E-01  at reduced coord.    0.0000    0.0000    0.8333
      Minimum=    1.2373E-03  at reduced coord.    0.0000    0.0000    0.0000
 Next minimum=    3.3100E-02  at reduced coord.    0.5000    0.5000    0.0000
   Integrated=    8.0000E+00
 Spin up density      [el/Bohr^3]
      Maximum=    4.5297E-01  at reduced coord.    0.0000    0.8333    0.8333
 Next maximum=    4.5297E-01  at reduced coord.    0.8333    0.0000    0.8333
      Minimum=    6.5629E-04  at reduced coord.    0.0000    0.0000    0.0000
 Next minimum=    1.6191E-02  at reduced coord.    0.5000    0.5000    0.0000
   Integrated=    4.9837E+00
 Spin down density    [el/Bohr^3]
      Maximum=    2.3449E-01  at reduced coord.    0.8333    0.8333    0.8333
 Next maximum=    2.3449E-01  at reduced coord.    0.0000    0.0000    0.8333
      Minimum=    5.8096E-04  at reduced coord.    0.0000    0.0000    0.0000
 Next minimum=    1.2356E-02  at reduced coord.    0.0556    0.0556    0.0000
   Integrated=    3.0163E+00
 Magnetization (spin up - spin down) [el/Bohr^3]
      Maximum=    3.2795E-01  at reduced coord.    0.0000    0.8333    0.8333
 Next maximum=    3.2795E-01  at reduced coord.    0.8333    0.0000    0.8333
      Minimum=   -1.8203E-03  at reduced coord.    0.7222    0.5000    0.2222
 Next minimum=   -1.8203E-03  at reduced coord.    0.5000    0.7222    0.2222
   Integrated=    1.9674E+00
 Relative magnetization (=zeta, between -1 and 1)
      Maximum=    5.7306E-01  at reduced coord.    0.0000    0.8889    0.8889
 Next maximum=    5.7306E-01  at reduced coord.    0.8889    0.0000    0.8889
      Minimum=   -4.8326E-02  at reduced coord.    0.7222    0.5000    0.2222
 Next minimum=   -4.8326E-02  at reduced coord.    0.5000    0.7222    0.2222

 Cartesian components of stress tensor (hartree/bohr^3)
  sigma(1 1)=  1.86261356E-02  sigma(3 2)=  0.00000000E+00
  sigma(2 2)=  1.86261356E-02  sigma(3 1)=  0.00000000E+00
  sigma(3 3)=  1.86261356E-02  sigma(2 1)=  0.00000000E+00

-Cartesian components of stress tensor (GPa)         [Pressure= -5.4800E+02 GPa]
- sigma(1 1)=  5.47999736E+02  sigma(3 2)=  0.00000000E+00
- sigma(2 2)=  5.47999736E+02  sigma(3 1)=  0.00000000E+00
- sigma(3 3)=  5.47999736E+02  sigma(2 1)=  0.00000000E+00

== END DATASET(S) ==============================================================
================================================================================
  
 -outvars: echo values of variables after computation  --------
 
 These variables are accessible in NetCDF format (tspin_1o_OUT.nc)

            acell      5.4200000000E+00  5.4200000000E+00  5.4200000000E+00 Bohr
              amu      5.58470000E+01
        bs_loband1          0
        bs_loband2          0       0
             ecut      1.80000000E+01 Hartree
           etotal1    -2.4661707268E+01
           etotal2    -2.4670792868E+01
            fcart1    -0.0000000000E+00 -0.0000000000E+00 -0.0000000000E+00
            fcart2    -0.0000000000E+00 -0.0000000000E+00 -0.0000000000E+00
-          fftalg         312
           jdtset        1    2
              kpt      1.25000000E-01  1.25000000E-01  1.25000000E-01
                       3.75000000E-01  1.25000000E-01  1.25000000E-01
                      -1.25000000E-01  1.25000000E-01  1.25000000E-01
                      -3.75000000E-01  3.75000000E-01  1.25000000E-01
                      -3.75000000E-01 -3.75000000E-01  1.25000000E-01
                      -3.75000000E-01  3.75000000E-01  3.75000000E-01
         kptrlatt        4    0    0      0    4    0      0    0    4
          kptrlen      1.87754308E+01
P           mkmem1          3
P           mkmem2          6
            natom           1
            nband1          8
            nband2          8
           ndtset           2
            ngfft          18      18      18
             nkpt           6
           nspden1          1
           nspden2          2
           nsppol1          1
           nsppol2          2
            nstep          50
             nsym          48
           ntypat           1
              occ1     2.000000  1.999891  1.999891  1.229151  1.229151  0.286756
                       0.000000  0.000000
                       1.999999  1.999987  1.998982  1.142097  0.970197  0.000001
                       0.000000  0.000000
                       2.000000  1.998522  1.997347  1.997347  1.951611  0.760699
                       0.000000  0.000000
                       2.000000  1.999757  1.999291  1.640524  0.091742  0.055543
                       0.000000  0.000000
                       1.999978  1.999978  1.999921  0.859640  0.859640  0.000000
                       0.000000  0.000000
                       1.999999  1.999995  0.595113  0.595113  0.115635  0.000000
                       0.000000  0.000000
              occ2     1.000000  0.999995  0.999995  0.983960  0.983960  0.694675
                       0.000000  0.000000
                       1.000000  0.999999  0.999881  0.983611  0.970152  0.000002
                       0.000000  0.000000
                       1.000000  0.999945  0.999891  0.999891  0.999261  0.963285
                       0.000000  0.000000
                       1.000000  0.999989  0.999961  0.990137  0.435333  0.332627
                       0.000000  0.000000
                       0.999999  0.999999  0.999995  0.933376  0.933376  0.000000
                       0.000000  0.000000
                       1.000000  1.000000  0.850805  0.850805  0.517177  0.000000
                       0.000000  0.000000
                       1.000000  0.997302  0.997302  0.008977  0.008977  0.002239
                       0.000000  0.000000
                       0.999990  0.999723  0.992359  0.006357  0.005633  0.000000
                       0.000000  0.000000
                       1.000000  0.949745  0.922917  0.922917  0.217576  0.003128
                       0.000000  0.000000
                       1.000000  0.993545  0.988810  0.041784  0.000486  0.000299
                       0.000000  0.000000
                       0.999607  0.999607  0.998396  0.007571  0.007571  0.000000
                       0.000000  0.000000
                       0.999983  0.999866  0.006180  0.006180  0.000639  0.000000
                       0.000000  0.000000
           occopt           3
           prtdos           1
           prtvol           1
            rprim     -5.0000000000E-01  5.0000000000E-01  5.0000000000E-01
                       5.0000000000E-01 -5.0000000000E-01  5.0000000000E-01
                       5.0000000000E-01  5.0000000000E-01 -5.0000000000E-01
           shiftk      5.00000000E-01  5.00000000E-01  5.00000000E-01
          spgroup         229
           spinat1     0.0000000000E+00  0.0000000000E+00  0.0000000000E+00
           spinat2     0.0000000000E+00  0.0000000000E+00  4.0000000000E+00
           strten1     1.8895257787E-02  1.8895257787E-02  1.8895257787E-02
                       0.0000000000E+00  0.0000000000E+00  0.0000000000E+00
           strten2     1.8626135571E-02  1.8626135571E-02  1.8626135571E-02
                       0.0000000000E+00  0.0000000000E+00  0.0000000000E+00
           symrel      1  0  0   0  1  0   0  0  1      -1  0  0   0 -1  0   0  0 -1
                      -1 -1 -1   0  0  1   0  1  0       1  1  1   0  0 -1   0 -1  0
                       0  1  0   1  0  0  -1 -1 -1       0 -1  0  -1  0  0   1  1  1
                       0  0  1  -1 -1 -1   1  0  0       0  0 -1   1  1  1  -1  0  0
                       0  1  0   1  0  0   0  0  1       0 -1  0  -1  0  0   0  0 -1
                      -1 -1 -1   0  0  1   1  0  0       1  1  1   0  0 -1  -1  0  0
                       1  0  0   0  1  0  -1 -1 -1      -1  0  0   0 -1  0   1  1  1
                       0  0  1  -1 -1 -1   0  1  0       0  0 -1   1  1  1   0 -1  0
                      -1 -1 -1   1  0  0   0  0  1       1  1  1  -1  0  0   0  0 -1
                       0  1  0   0  0  1   1  0  0       0 -1  0   0  0 -1  -1  0  0
                       1  0  0  -1 -1 -1   0  1  0      -1  0  0   1  1  1   0 -1  0
                       0  0  1   0  1  0  -1 -1 -1       0  0 -1   0 -1  0   1  1  1
                       1  0  0  -1 -1 -1   0  0  1      -1  0  0   1  1  1   0  0 -1
                       0  1  0   0  0  1  -1 -1 -1       0 -1  0   0  0 -1   1  1  1
                      -1 -1 -1   1  0  0   0  1  0       1  1  1  -1  0  0   0 -1  0
                       0  0  1   0  1  0   1  0  0       0  0 -1   0 -1  0  -1  0  0
                       0  1  0  -1 -1 -1   0  0  1       0 -1  0   1  1  1   0  0 -1
                       1  0  0   0  0  1  -1 -1 -1      -1  0  0   0  0 -1   1  1  1
                      -1 -1 -1   0  1  0   1  0  0       1  1  1   0 -1  0  -1  0  0
                       0  0  1   1  0  0   0  1  0       0  0 -1  -1  0  0   0 -1  0
                      -1 -1 -1   0  1  0   0  0  1       1  1  1   0 -1  0   0  0 -1
                       1  0  0   0  0  1   0  1  0      -1  0  0   0  0 -1   0 -1  0
                       0  1  0  -1 -1 -1   1  0  0       0 -1  0   1  1  1  -1  0  0
                       0  0  1   1  0  0  -1 -1 -1       0  0 -1  -1  0  0   1  1  1
           tolvrs      1.00000000E-10
            typat      1
              wtk        0.12500    0.18750    0.09375    0.37500    0.12500    0.09375
            znucl       26.00000

================================================================================
  

================================================================================

 Suggested references for the acknowledgment of ABINIT usage.

 The users of ABINIT have little formal obligations with respect to the ABINIT group
 (those specified in the GNU General Public License, http://www.gnu.org/copyleft/gpl.txt).
 However, it is common practice in the scientific literature,
 to acknowledge the efforts of people that have made the research possible.
 In this spirit, please find below suggested citations of work written by ABINIT developers,
 corresponding to implementations inside of ABINIT that you have used in the present run.
 Note also that it will be of great value to readers of publications presenting these results,
 to read papers enabling them to understand the theoretical formalism and details
 of the ABINIT implementation.
 For information on why they are suggested, see also https://docs.abinit.org/theory/acknowledgments.
-
- [1] Recent developments in the ABINIT software package.
- Computer Phys. Comm. 205, 106 (2016).
- X.Gonze, F.Jollet, F.Abreu Araujo, D.Adams, B.Amadon, T.Applencourt,
- C.Audouze, J.-M.Beuken, J.Bieder, A.Bokhanchuk, E.Bousquet, F.Bruneval
- D.Caliste, M.Cote, F.Dahm, F.Da Pieve, M.Delaveau, M.Di Gennaro,
- B.Dorado, C.Espejo, G.Geneste, L.Genovese, A.Gerossier, M.Giantomassi,
- Y.Gillet, D.R.Hamann, L.He, G.Jomard, J.Laflamme Janssen, S.Le Roux,
- A.Levitt, A.Lherbier, F.Liu, I.Lukacevic, A.Martin, C.Martins,
- M.J.T.Oliveira, S.Ponce, Y.Pouillon, T.Rangel, G.-M.Rignanese,
- A.H.Romero, B.Rousseau, O.Rubel, A.A.Shukri, M.Stankovski, M.Torrent,
- M.J.Van Setten, B.Van Troeye, M.J.Verstraete, D.Waroquier, J.Wiktor,
- B.Xu, A.Zhou, J.W.Zwanziger.
- Comment : the fourth generic paper describing the ABINIT project.
- Note that a version of this paper, that is not formatted for Computer Phys. Comm. 
- is available at https://www.abinit.org/about/ABINIT16.pdf .
- The licence allows the authors to put it on the Web.
- DOI and bibtex : see https://docs.abinit.org/theory/bibliography/#gonze2016
-
- [2] ABINIT : First-principles approach of materials and nanosystem properties.
- Computer Phys. Comm. 180, 2582-2615 (2009).
- X. Gonze, B. Amadon, P.-M. Anglade, J.-M. Beuken, F. Bottin, P. Boulanger, F. Bruneval,
- D. Caliste, R. Caracas, M. Cote, T. Deutsch, L. Genovese, Ph. Ghosez, M. Giantomassi
- S. Goedecker, D.R. Hamann, P. Hermet, F. Jollet, G. Jomard, S. Leroux, M. Mancini, S. Mazevet,
- M.J.T. Oliveira, G. Onida, Y. Pouillon, T. Rangel, G.-M. Rignanese, D. Sangalli, R. Shaltaf,
- M. Torrent, M.J. Verstraete, G. Zerah, J.W. Zwanziger
- Comment : the third generic paper describing the ABINIT project.
- Note that a version of this paper, that is not formatted for Computer Phys. Comm. 
- is available at https://www.abinit.org/about/ABINIT_CPC_v10.pdf .
- The licence allows the authors to put it on the Web.
- DOI and bibtex : see https://docs.abinit.org/theory/bibliography/#gonze2009
-
- [3] A brief introduction to the ABINIT software package.
- Z. Kristallogr. 220, 558-562 (2005).
- X. Gonze, G.-M. Rignanese, M. Verstraete, J.-M. Beuken, Y. Pouillon, R. Caracas, F. Jollet,
- M. Torrent, G. Zerah, M. Mikami, Ph. Ghosez, M. Veithen, J.-Y. Raty, V. Olevano, F. Bruneval,
- L. Reining, R. Godby, G. Onida, D.R. Hamann, and D.C. Allan.
- Comment : the second generic paper describing the ABINIT project. Note that this paper
- should be cited especially if you are using the GW part of ABINIT, as several authors
- of this part are not in the list of authors of the first or third paper.
- The .pdf of the latter paper is available at https://www.abinit.org/about/zfk_0505-06_558-562.pdf.
- Note that it should not redistributed (Copyright by Oldenburg Wissenshaftverlag,
- the licence allows the authors to put it on the Web).
- DOI and bibtex : see https://docs.abinit.org/theory/bibliography/#gonze2005
-
- And optionally:
-
- [4] First-principles computation of material properties : the ABINIT software project. 
- X. Gonze, J.-M. Beuken, R. Caracas, F. Detraux, M. Fuchs, G.-M. Rignanese, L. Sindic,
- M. Verstraete, G. Zerah, F. Jollet, M. Torrent, A. Roy, M. Mikami, Ph. Ghosez, J.-Y. Raty, D.C. Allan.
- Computational Materials Science 25, 478-492 (2002). http://dx.doi.org/10.1016/S0927-0256(02)00325-7
- Comment : the original paper describing the ABINIT project.
- DOI and bibtex : see https://docs.abinit.org/theory/bibliography/#gonze2002
  Asked to delete not existent file: tspin_1_STATUS
 Proc.   0 individual time (sec): cpu=          7.6  wall=          7.8

 Calculation completed.
.Delivered   0 WARNINGs and   0 COMMENTs to log file.

--- !FinalSummary
program: abinit
version: 8.10.3
start_datetime: Fri Oct 25 16:45:26 2019
end_datetime: Fri Oct 25 16:45:34 2019
overall_cpu_time:          15.3
overall_wall_time:          15.5
exit_requested_by_user: no 
timelimit: 0
pseudos: 
    Fe  : 04ce328394cac36b238b072f266c7568
usepaw: 0
mpi_procs: 2
omp_threads: 1
num_warnings: 0
num_comments: 0
...
