
.Version 8.10.3 of ABINIT 
.(MPI version, prepared for a x86_64_linux_gnu5.4 computer) 

.Copyright (C) 1998-2018 ABINIT group . 
 ABINIT comes with ABSOLUTELY NO WARRANTY.
 It is free software, and you are welcome to redistribute it
 under certain conditions (GNU General Public License,
 see ~abinit/COPYING or http://www.gnu.org/copyleft/gpl.txt).

 ABINIT is a project of the Universite Catholique de Louvain,
 Corning Inc. and other collaborators, see ~abinit/doc/developers/contributors.txt .
 Please read https://docs.abinit.org/theory/acknowledgments for suggested
 acknowledgments of the ABINIT effort.
 For more information, see https://www.abinit.org .

.Starting date : Fri 25 Oct 2019.
- ( at 15h47 )
  
- input  file    -> tspin_1.in
- output file    -> tspin_1.out
- root for input  files -> tspin_1i
- root for output files -> tspin_1o


 DATASET    1 : space group Im -3 m (#229); Bravais cI (body-center cubic)
================================================================================
 Values of the parameters that define the memory need for DATASET  1.
     intxc =       0    ionmov =       0      iscf =       7    lmnmax =       2
     lnmax =       2     mgfft =      18  mpssoang =       3    mqgrid =    3001
     natom =       1  nloc_mem =       1    nspden =       1   nspinor =       1
    nsppol =       1      nsym =      48    n1xccc =    2501    ntypat =       1
    occopt =       3   xclevel =       1
-    mband =           8        mffmem =           1         mkmem =           3
       mpw =         301          nfft =        5832          nkpt =           6
================================================================================
P This job should need less than                       3.072 Mbytes of memory.
  Rough estimation (10% accuracy) of disk space for files :
_ WF disk file :      0.222 Mbytes ; DEN or POT disk file :      0.046 Mbytes.
================================================================================


 DATASET    2 : space group Im -3 m (#229); Bravais cI (body-center cubic)
================================================================================
 Values of the parameters that define the memory need for DATASET  2.
     intxc =       0    ionmov =       0      iscf =       7    lmnmax =       2
     lnmax =       2     mgfft =      18  mpssoang =       3    mqgrid =    3001
     natom =       1  nloc_mem =       1    nspden =       2   nspinor =       1
    nsppol =       2      nsym =      48    n1xccc =    2501    ntypat =       1
    occopt =       3   xclevel =       1
-    mband =           8        mffmem =           1         mkmem =           6
       mpw =         301          nfft =        5832          nkpt =           6
================================================================================
P This job should need less than                       4.309 Mbytes of memory.
  Rough estimation (10% accuracy) of disk space for files :
_ WF disk file :      0.443 Mbytes ; DEN or POT disk file :      0.091 Mbytes.
================================================================================

--------------------------------------------------------------------------------
------------- Echo of variables that govern the present computation ------------
--------------------------------------------------------------------------------
-
- outvars: echo of selected default values                                      
-   iomode0 =  0 , fftalg0 =312 , wfoptalg0 =  0
-
- outvars: echo of global parameters not present in the input file              
-  max_nthreads =    1
-
 -outvars: echo values of preprocessed input variables --------
            acell      5.4200000000E+00  5.4200000000E+00  5.4200000000E+00 Bohr
              amu      5.58470000E+01
        bs_loband1          0
        bs_loband2          0       0
             ecut      1.80000000E+01 Hartree
-          fftalg         312
           jdtset        1    2
              kpt      1.25000000E-01  1.25000000E-01  1.25000000E-01
                       3.75000000E-01  1.25000000E-01  1.25000000E-01
                      -1.25000000E-01  1.25000000E-01  1.25000000E-01
                      -3.75000000E-01  3.75000000E-01  1.25000000E-01
                      -3.75000000E-01 -3.75000000E-01  1.25000000E-01
                      -3.75000000E-01  3.75000000E-01  3.75000000E-01
         kptrlatt        4    0    0      0    4    0      0    0    4
          kptrlen      1.87754308E+01
P           mkmem1          3
P           mkmem2          6
            natom           1
            nband1          8
            nband2          8
           ndtset           2
            ngfft          18      18      18
             nkpt           6
           nspden1          1
           nspden2          2
           nsppol1          1
           nsppol2          2
            nstep          50
             nsym          48
           ntypat           1
              occ1     2.000000  2.000000  2.000000  2.000000  0.000000  0.000000
                       0.000000  0.000000
                       2.000000  2.000000  2.000000  2.000000  0.000000  0.000000
                       0.000000  0.000000
                       2.000000  2.000000  2.000000  2.000000  0.000000  0.000000
                       0.000000  0.000000
                       2.000000  2.000000  2.000000  2.000000  0.000000  0.000000
                       0.000000  0.000000
                       2.000000  2.000000  2.000000  2.000000  0.000000  0.000000
                       0.000000  0.000000
                       2.000000  2.000000  2.000000  2.000000  0.000000  0.000000
                       0.000000  0.000000
              occ2     1.000000  1.000000  1.000000  1.000000  0.000000  0.000000
                       0.000000  0.000000
                       1.000000  1.000000  1.000000  1.000000  0.000000  0.000000
                       0.000000  0.000000
                       1.000000  1.000000  1.000000  1.000000  0.000000  0.000000
                       0.000000  0.000000
                       1.000000  1.000000  1.000000  1.000000  0.000000  0.000000
                       0.000000  0.000000
                       1.000000  1.000000  1.000000  1.000000  0.000000  0.000000
                       0.000000  0.000000
                       1.000000  1.000000  1.000000  1.000000  0.000000  0.000000
                       0.000000  0.000000
                       1.000000  1.000000  1.000000  1.000000  0.000000  0.000000
                       0.000000  0.000000
                       1.000000  1.000000  1.000000  1.000000  0.000000  0.000000
                       0.000000  0.000000
                       1.000000  1.000000  1.000000  1.000000  0.000000  0.000000
                       0.000000  0.000000
                       1.000000  1.000000  1.000000  1.000000  0.000000  0.000000
                       0.000000  0.000000
                       1.000000  1.000000  1.000000  1.000000  0.000000  0.000000
                       0.000000  0.000000
                       1.000000  1.000000  1.000000  1.000000  0.000000  0.000000
                       0.000000  0.000000
           occopt           3
           prtdos           1
           prtvol           2
            rprim     -5.0000000000E-01  5.0000000000E-01  5.0000000000E-01
                       5.0000000000E-01 -5.0000000000E-01  5.0000000000E-01
                       5.0000000000E-01  5.0000000000E-01 -5.0000000000E-01
           shiftk      5.00000000E-01  5.00000000E-01  5.00000000E-01
          spgroup         229
           spinat1     0.0000000000E+00  0.0000000000E+00  0.0000000000E+00
           spinat2     0.0000000000E+00  0.0000000000E+00  4.0000000000E+00
           symrel      1  0  0   0  1  0   0  0  1      -1  0  0   0 -1  0   0  0 -1
                      -1 -1 -1   0  0  1   0  1  0       1  1  1   0  0 -1   0 -1  0
                       0  1  0   1  0  0  -1 -1 -1       0 -1  0  -1  0  0   1  1  1
                       0  0  1  -1 -1 -1   1  0  0       0  0 -1   1  1  1  -1  0  0
                       0  1  0   1  0  0   0  0  1       0 -1  0  -1  0  0   0  0 -1
                      -1 -1 -1   0  0  1   1  0  0       1  1  1   0  0 -1  -1  0  0
                       1  0  0   0  1  0  -1 -1 -1      -1  0  0   0 -1  0   1  1  1
                       0  0  1  -1 -1 -1   0  1  0       0  0 -1   1  1  1   0 -1  0
                      -1 -1 -1   1  0  0   0  0  1       1  1  1  -1  0  0   0  0 -1
                       0  1  0   0  0  1   1  0  0       0 -1  0   0  0 -1  -1  0  0
                       1  0  0  -1 -1 -1   0  1  0      -1  0  0   1  1  1   0 -1  0
                       0  0  1   0  1  0  -1 -1 -1       0  0 -1   0 -1  0   1  1  1
                       1  0  0  -1 -1 -1   0  0  1      -1  0  0   1  1  1   0  0 -1
                       0  1  0   0  0  1  -1 -1 -1       0 -1  0   0  0 -1   1  1  1
                      -1 -1 -1   1  0  0   0  1  0       1  1  1  -1  0  0   0 -1  0
                       0  0  1   0  1  0   1  0  0       0  0 -1   0 -1  0  -1  0  0
                       0  1  0  -1 -1 -1   0  0  1       0 -1  0   1  1  1   0  0 -1
                       1  0  0   0  0  1  -1 -1 -1      -1  0  0   0  0 -1   1  1  1
                      -1 -1 -1   0  1  0   1  0  0       1  1  1   0 -1  0  -1  0  0
                       0  0  1   1  0  0   0  1  0       0  0 -1  -1  0  0   0 -1  0
                      -1 -1 -1   0  1  0   0  0  1       1  1  1   0 -1  0   0  0 -1
                       1  0  0   0  0  1   0  1  0      -1  0  0   0  0 -1   0 -1  0
                       0  1  0  -1 -1 -1   1  0  0       0 -1  0   1  1  1  -1  0  0
                       0  0  1   1  0  0  -1 -1 -1       0  0 -1  -1  0  0   1  1  1
           tolvrs      1.00000000E-10
            typat      1
              wtk        0.12500    0.18750    0.09375    0.37500    0.12500    0.09375
            znucl       26.00000

================================================================================

 chkinp: Checking input parameters for consistency, jdtset=   1.

 chkinp: Checking input parameters for consistency, jdtset=   2.

================================================================================
== DATASET  1 ==================================================================
-   nproc =    2

 Exchange-correlation functional for the present dataset will be:
  LDA: new Teter (4/93) with spin-polarized option - ixc=1
 Citation for XC functional:
  S. Goedecker, M. Teter, J. Huetter, PRB 54, 1703 (1996)

 Real(R)+Recip(G) space primitive vectors, cartesian coordinates (Bohr,Bohr^-1):
 R(1)= -2.7100000  2.7100000  2.7100000  G(1)=  0.0000000  0.1845018  0.1845018
 R(2)=  2.7100000 -2.7100000  2.7100000  G(2)=  0.1845018  0.0000000  0.1845018
 R(3)=  2.7100000  2.7100000 -2.7100000  G(3)=  0.1845018  0.1845018  0.0000000
 Unit cell volume ucvol=  7.9610044E+01 bohr^3
 Angles (23,13,12)=  1.09471221E+02  1.09471221E+02  1.09471221E+02 degrees

 getcut: wavevector=  0.0000  0.0000  0.0000  ngfft=  18  18  18
         ecut(hartree)=     18.000   => boxcut(ratio)=   2.00790

--- Pseudopotential description ------------------------------------------------
- pspini: atom type   1  psp file is ../../../../../Psps_for_tests/26fe.pspnc
- pspatm: opening atomic psp file    ../../../../../Psps_for_tests/26fe.pspnc
-  Troullier-Martins psp for element  Fe        Thu Oct 27 17:35:05 EDT 1994
- 26.00000   8.00000    940714                znucl, zion, pspdat
    1    1    2    0      2001   0.00000      pspcod,pspxc,lmax,lloc,mmax,r2well
    0   4.333  10.868    0   2.2918558        l,e99.0,e99.9,nproj,rcpsp
   0.00000000   0.00000000   0.00000000   0.00000000     rms, ekb1, ekb2, epsatm
    1   1.213   4.197    1   2.8345121        l,e99.0,e99.9,nproj,rcpsp
   0.00000000   0.00000000   0.00000000   0.00000000     rms, ekb1, ekb2, epsatm
    2  18.664  23.972    1   2.2918558        l,e99.0,e99.9,nproj,rcpsp
   0.00000000   0.00000000   0.00000000   0.00000000     rms, ekb1, ekb2, epsatm
    1.56404770202776    2.06158206779471    6.88331421535388   rchrg,fchrg,qchrg
  pspatm : epsatm=   62.03296659
         --- l  ekb(1:nproj) -->
             1    1.561134
             2   -8.115829
 pspatm: atomic psp has been read  and splines computed

   4.96263733E+02                                ecore*ucvol(ha*bohr**3)
--------------------------------------------------------------------------------

P newkpt: treating      8 bands with npw=     294 for ikpt=   1 by node    0
P newkpt: treating      8 bands with npw=     296 for ikpt=   2 by node    0
P newkpt: treating      8 bands with npw=     301 for ikpt=   3 by node    0
P newkpt: treating      8 bands with npw=     286 for ikpt=   4 by node    1
P newkpt: treating      8 bands with npw=     291 for ikpt=   5 by node    1
P newkpt: treating      8 bands with npw=     281 for ikpt=   6 by node    1
_setup2: Arith. and geom. avg. npw (full set) are     290.438     290.380

================================================================================

     iter   Etot(hartree)      deltaE(h)  residm     vres2
 ETOT  1  -23.451959980875    -2.345E+01 3.955E-01 1.127E+03
 ETOT  2  -23.916448283242    -4.645E-01 5.021E-03 6.637E+02
 ETOT  3  -24.655626921534    -7.392E-01 2.500E-02 5.294E+00
 ETOT  4  -24.649234179745     6.393E-03 3.139E-03 1.448E+01
 ETOT  5  -24.661562617999    -1.233E-02 4.939E-04 1.180E-01
 ETOT  6  -24.661704931891    -1.423E-04 1.657E-04 2.087E-03
 ETOT  7  -24.661707256358    -2.324E-06 2.793E-06 1.571E-05
 ETOT  8  -24.661707266864    -1.051E-08 5.165E-06 5.475E-07
 ETOT  9  -24.661707267543    -6.790E-10 2.522E-06 1.157E-09
 ETOT 10  -24.661707267544    -1.201E-12 4.490E-06 1.697E-10
 ETOT 11  -24.661707267544    -1.208E-13 2.157E-06 1.192E-13

 At SCF step   11       vres2   =  1.19E-13 < tolvrs=  1.00E-10 =>converged.

 Cartesian components of stress tensor (hartree/bohr^3)
  sigma(1 1)=  1.88952578E-02  sigma(3 2)=  0.00000000E+00
  sigma(2 2)=  1.88952578E-02  sigma(3 1)=  0.00000000E+00
  sigma(3 3)=  1.88952578E-02  sigma(2 1)=  0.00000000E+00

 Integrated electronic density in atomic spheres:
 ------------------------------------------------
 Atom  Sphere_radius  Integrated_density
    1        2.00000          6.03318849
================================================================================

 ----iterations are completed or convergence reached----

 Mean square residual over all n,k,spin=   45.086E-09; max=  21.572E-07
   0.1250  0.1250  0.1250    1  1.38845E-11 kpt; spin; max resid(k); each band:
  1.06E-15 3.21E-15 3.21E-15 3.85E-16 3.84E-16 1.19E-15 8.30E-15 1.39E-11
   0.3750  0.1250  0.1250    1  6.01411E-09 kpt; spin; max resid(k); each band:
  5.22E-15 2.28E-16 5.48E-15 2.86E-17 1.89E-16 5.48E-15 4.61E-15 6.01E-09
  -0.1250  0.1250  0.1250    1  2.15725E-06 kpt; spin; max resid(k); each band:
  1.16E-16 2.45E-18 1.02E-16 1.93E-16 2.96E-15 3.39E-16 8.26E-10 2.16E-06
  -0.3750  0.3750  0.1250    1  1.10866E-11 kpt; spin; max resid(k); each band:
  3.70E-15 1.45E-15 4.52E-15 5.45E-16 2.97E-15 4.80E-16 4.21E-15 1.11E-11
  -0.3750 -0.3750  0.1250    1  4.89515E-15 kpt; spin; max resid(k); each band:
  4.42E-15 4.42E-15 2.59E-15 6.71E-16 6.69E-16 4.90E-15 4.89E-15 2.58E-15
  -0.3750  0.3750  0.3750    1  2.99733E-15 kpt; spin; max resid(k); each band:
  2.99E-15 6.66E-17 2.11E-15 2.11E-15 2.28E-17 3.00E-15 2.11E-15 2.10E-15
 reduced coordinates (array xred) for    1 atoms
       0.000000000000      0.000000000000      0.000000000000
 rms dE/dt=  0.0000E+00; max dE/dt=  0.0000E+00; dE/dt below (all hartree)
    1       0.000000000000      0.000000000000      0.000000000000

 cartesian coordinates (angstrom) at end:
    1      0.00000000000000     0.00000000000000     0.00000000000000

 cartesian forces (hartree/bohr) at end:
    1     -0.00000000000000    -0.00000000000000    -0.00000000000000
 frms,max,avg= 0.0000000E+00 0.0000000E+00   0.000E+00  0.000E+00  0.000E+00 h/b

 cartesian forces (eV/Angstrom) at end:
    1     -0.00000000000000    -0.00000000000000    -0.00000000000000
 frms,max,avg= 0.0000000E+00 0.0000000E+00   0.000E+00  0.000E+00  0.000E+00 e/A
 length scales=  5.420000000000  5.420000000000  5.420000000000 bohr
              =  2.868140470558  2.868140470558  2.868140470558 angstroms
 prteigrs : about to open file tspin_1o_DS1_EIG
 Fermi (or HOMO) energy (hartree) =  -0.25843   Average Vxc (hartree)=  -0.51723
 Eigenvalues (hartree) for nkpt=   6  k points:
 kpt#   1, nband=  8, wtk=  0.12500, kpt=  0.1250  0.1250  0.1250 (reduced coord)
  -0.47539   -0.35658   -0.35658   -0.26310   -0.26310   -0.24056    0.34937    0.34937
      occupation numbers for kpt#   1
   2.00000    1.99989    1.99989    1.22915    1.22915    0.28676    0.00000    0.00000
 kpt#   2, nband=  8, wtk=  0.18750, kpt=  0.3750  0.1250  0.1250 (reduced coord)
  -0.40588   -0.37775   -0.33426   -0.26129   -0.25784   -0.11184    0.01640    0.25405
      occupation numbers for kpt#   2
   2.00000    1.99999    1.99898    1.14210    0.97020    0.00000    0.00000    0.00000
 kpt#   3, nband=  8, wtk=  0.09375, kpt= -0.1250  0.1250  0.1250 (reduced coord)
  -0.55320   -0.33053   -0.32467   -0.32467   -0.29540   -0.25355    0.54744    0.60554
      occupation numbers for kpt#   3
   2.00000    1.99852    1.99735    1.99735    1.95161    0.76070    0.00000    0.00000
 kpt#   4, nband=  8, wtk=  0.37500, kpt= -0.3750  0.3750  0.1250 (reduced coord)
  -0.43137   -0.34860   -0.33787   -0.27361   -0.22808   -0.22288    0.13427    0.39562
      occupation numbers for kpt#   4
   2.00000    1.99976    1.99929    1.64052    0.09174    0.05554    0.00000    0.00000
 kpt#   5, nband=  8, wtk=  0.12500, kpt= -0.3750 -0.3750  0.1250 (reduced coord)
  -0.37265   -0.37265   -0.35984   -0.25561   -0.25561   -0.00135   -0.00135    0.06850
      occupation numbers for kpt#   5
   1.99998    1.99998    1.99992    0.85964    0.85964    0.00000    0.00000    0.00000
 kpt#   6, nband=  8, wtk=  0.09375, kpt= -0.3750  0.3750  0.3750 (reduced coord)
  -0.40314   -0.38779   -0.24984   -0.24984   -0.23052   -0.09805    0.16268    0.16268
      occupation numbers for kpt#   6
   2.00000    2.00000    0.59511    0.59511    0.11564    0.00000    0.00000    0.00000
 Total charge density [el/Bohr^3]
      Maximum=    6.2226E-01  at reduced coord.    0.7778    0.8889    0.8889
 Next maximum=    6.2226E-01  at reduced coord.    0.8889    0.7778    0.8889
      Minimum=    1.1962E-03  at reduced coord.    0.0000    0.0000    0.0000
 Next minimum=    3.3476E-02  at reduced coord.    0.5000    0.5000    0.0000
   Integrated=    8.0000E+00

--------------------------------------------------------------------------------
 Components of total free energy (in Hartree) :

    Kinetic energy  =  2.44613004731492E+01
    Hartree energy  =  2.47102170536922E+00
    XC energy       = -1.04222176837026E+01
    Ewald energy    = -2.14862491483900E+01
    PspCore energy  =  6.23368243229498E+00
    Loc. psp. energy=  2.06440913413413E+00
    NL   psp  energy= -2.79605774130783E+01
    >>>>> Internal E= -2.46386305002234E+01

    -kT*entropy     = -2.30767673209904E-02
    >>>>>>>>> Etotal= -2.46617072675443E+01

 Other information on the energy :
    Total energy(eV)= -6.71079183100101E+02 ; Band energy (Ha)=  -2.7969361200E+00
--------------------------------------------------------------------------------

 Cartesian components of stress tensor (hartree/bohr^3)
  sigma(1 1)=  1.88952578E-02  sigma(3 2)=  0.00000000E+00
  sigma(2 2)=  1.88952578E-02  sigma(3 1)=  0.00000000E+00
  sigma(3 3)=  1.88952578E-02  sigma(2 1)=  0.00000000E+00

-Cartesian components of stress tensor (GPa)         [Pressure= -5.5592E+02 GPa]
- sigma(1 1)=  5.55917583E+02  sigma(3 2)=  0.00000000E+00
- sigma(2 2)=  5.55917583E+02  sigma(3 1)=  0.00000000E+00
- sigma(3 3)=  5.55917583E+02  sigma(2 1)=  0.00000000E+00

================================================================================
== DATASET  2 ==================================================================
-   nproc =    2

 Exchange-correlation functional for the present dataset will be:
  LDA: new Teter (4/93) with spin-polarized option - ixc=1
 Citation for XC functional:
  S. Goedecker, M. Teter, J. Huetter, PRB 54, 1703 (1996)

 Real(R)+Recip(G) space primitive vectors, cartesian coordinates (Bohr,Bohr^-1):
 R(1)= -2.7100000  2.7100000  2.7100000  G(1)=  0.0000000  0.1845018  0.1845018
 R(2)=  2.7100000 -2.7100000  2.7100000  G(2)=  0.1845018  0.0000000  0.1845018
 R(3)=  2.7100000  2.7100000 -2.7100000  G(3)=  0.1845018  0.1845018  0.0000000
 Unit cell volume ucvol=  7.9610044E+01 bohr^3
 Angles (23,13,12)=  1.09471221E+02  1.09471221E+02  1.09471221E+02 degrees

 getcut: wavevector=  0.0000  0.0000  0.0000  ngfft=  18  18  18
         ecut(hartree)=     18.000   => boxcut(ratio)=   2.00790
--------------------------------------------------------------------------------

P newkpt: treating      8 bands with npw=     294 for ikpt=   1 by node    0
P newkpt: treating      8 bands with npw=     296 for ikpt=   2 by node    0
P newkpt: treating      8 bands with npw=     301 for ikpt=   3 by node    0
P newkpt: treating      8 bands with npw=     286 for ikpt=   4 by node    0
P newkpt: treating      8 bands with npw=     291 for ikpt=   5 by node    0
P newkpt: treating      8 bands with npw=     281 for ikpt=   6 by node    0
P newkpt: treating      8 bands with npw=     294 for ikpt=   1 by node    1
P newkpt: treating      8 bands with npw=     296 for ikpt=   2 by node    1
P newkpt: treating      8 bands with npw=     301 for ikpt=   3 by node    1
P newkpt: treating      8 bands with npw=     286 for ikpt=   4 by node    1
P newkpt: treating      8 bands with npw=     291 for ikpt=   5 by node    1
P newkpt: treating      8 bands with npw=     281 for ikpt=   6 by node    1
_setup2: Arith. and geom. avg. npw (full set) are     290.438     290.380

================================================================================

     iter   Etot(hartree)     deltaE(h) residm    vres2    magn
 ETOT  1  -23.446225794160    -2.34E+01 4.28E-01 2.31E+03 1.987
 ETOT  2  -23.953309472452    -5.07E-01 5.47E-03 1.29E+03 1.202
 ETOT  3  -24.663916285046    -7.11E-01 2.50E-02 9.36E+00 1.612
 ETOT  4  -24.669923700628    -6.01E-03 1.50E-02 1.21E-01 1.719
 ETOT  5  -24.670510785184    -5.87E-04 1.11E-03 6.92E-02 1.839
 ETOT  6  -24.670787522323    -2.77E-04 1.51E-04 8.53E-03 1.967
 ETOT  7  -24.670792791367    -5.27E-06 1.33E-04 9.89E-05 1.966
 ETOT  8  -24.670792855570    -6.42E-08 2.42E-05 1.47E-05 1.967
 ETOT  9  -24.670792867732    -1.22E-08 1.55E-05 1.52E-07 1.967
 ETOT 10  -24.670792867745    -1.29E-11 5.14E-06 3.33E-08 1.967
 ETOT 11  -24.670792867766    -2.12E-11 3.75E-06 1.17E-09 1.967
 ETOT 12  -24.670792867767    -7.53E-13 2.25E-06 5.01E-14 1.967

 At SCF step   12       vres2   =  5.01E-14 < tolvrs=  1.00E-10 =>converged.

 Cartesian components of stress tensor (hartree/bohr^3)
  sigma(1 1)=  1.86261356E-02  sigma(3 2)=  0.00000000E+00
  sigma(2 2)=  1.86261356E-02  sigma(3 1)=  0.00000000E+00
  sigma(3 3)=  1.86261356E-02  sigma(2 1)=  0.00000000E+00

 Integrated electronic and magnetization densities in atomic spheres:
 ---------------------------------------------------------------------
 Note: Diff(up-dn) is a rough approximation of local magnetic moment
 Atom    Radius    up_density   dn_density  Total(up+dn)  Diff(up-dn)
    1   2.00000     3.983007     2.044219      6.027226     1.938789
 ---------------------------------------------------------------------
  Sum:              3.983007     2.044219      6.027226     1.938789
 Total magnetization (from the atomic spheres):             1.938789
 Total magnetization (exact up - dn):                       1.967435
================================================================================

 ----iterations are completed or convergence reached----

 Mean square residual over all n,k,spin=   50.874E-09; max=  22.531E-07
   0.1250  0.1250  0.1250    1  2.16218E-10 kpt; spin; max resid(k); each band:
  7.40E-15 1.68E-14 1.67E-14 1.41E-15 1.41E-15 8.31E-15 1.94E-14 2.16E-10
   0.3750  0.1250  0.1250    1  1.97999E-07 kpt; spin; max resid(k); each band:
  2.71E-14 6.07E-16 3.07E-14 6.55E-17 1.02E-15 3.07E-14 2.35E-14 1.98E-07
  -0.1250  0.1250  0.1250    1  1.02530E-06 kpt; spin; max resid(k); each band:
  6.64E-16 5.71E-17 2.77E-16 4.19E-16 1.30E-14 1.71E-15 2.04E-10 1.03E-06
  -0.3750  0.3750  0.1250    1  5.43512E-10 kpt; spin; max resid(k); each band:
  2.11E-14 7.36E-15 2.04E-14 3.66E-15 1.82E-14 2.22E-15 2.12E-14 5.44E-10
  -0.3750 -0.3750  0.1250    1  2.40438E-14 kpt; spin; max resid(k); each band:
  1.99E-14 1.99E-14 1.32E-14 4.52E-15 4.52E-15 2.40E-14 2.40E-14 1.32E-14
  -0.3750  0.3750  0.3750    1  1.32506E-14 kpt; spin; max resid(k); each band:
  1.33E-14 4.65E-16 1.02E-14 1.02E-14 8.60E-17 1.32E-14 1.02E-14 1.02E-14
   0.1250  0.1250  0.1250    2  2.20167E-07 kpt; spin; max resid(k); each band:
  1.24E-15 5.83E-15 5.83E-15 1.35E-15 1.35E-15 1.77E-15 7.10E-15 2.20E-07
   0.3750  0.1250  0.1250    2  1.17912E-06 kpt; spin; max resid(k); each band:
  9.72E-15 5.21E-16 8.03E-15 1.38E-16 9.58E-16 8.03E-15 8.47E-15 1.18E-06
  -0.1250  0.1250  0.1250    2  2.25312E-06 kpt; spin; max resid(k); each band:
  2.25E-16 2.74E-17 2.12E-16 4.37E-16 7.99E-15 7.88E-16 1.31E-10 2.25E-06
  -0.3750  0.3750  0.1250    2  7.10817E-09 kpt; spin; max resid(k); each band:
  6.62E-15 2.67E-15 1.07E-14 1.50E-15 6.16E-15 9.42E-16 8.35E-15 7.11E-09
  -0.3750 -0.3750  0.1250    2  1.15082E-14 kpt; spin; max resid(k); each band:
  1.15E-14 1.15E-14 4.51E-15 1.43E-15 1.43E-15 1.07E-14 1.07E-14 4.51E-15
  -0.3750  0.3750  0.3750    2  8.66810E-15 kpt; spin; max resid(k); each band:
  8.61E-15 8.28E-17 4.11E-15 4.11E-15 7.20E-17 8.67E-15 4.09E-15 4.09E-15
 reduced coordinates (array xred) for    1 atoms
       0.000000000000      0.000000000000      0.000000000000
 rms dE/dt=  0.0000E+00; max dE/dt=  0.0000E+00; dE/dt below (all hartree)
    1       0.000000000000      0.000000000000      0.000000000000

 cartesian coordinates (angstrom) at end:
    1      0.00000000000000     0.00000000000000     0.00000000000000

 cartesian forces (hartree/bohr) at end:
    1     -0.00000000000000    -0.00000000000000    -0.00000000000000
 frms,max,avg= 0.0000000E+00 0.0000000E+00   0.000E+00  0.000E+00  0.000E+00 h/b

 cartesian forces (eV/Angstrom) at end:
    1     -0.00000000000000    -0.00000000000000    -0.00000000000000
 frms,max,avg= 0.0000000E+00 0.0000000E+00   0.000E+00  0.000E+00  0.000E+00 e/A
 length scales=  5.420000000000  5.420000000000  5.420000000000 bohr
              =  2.868140470558  2.868140470558  2.868140470558 angstroms
 prteigrs : about to open file tspin_1o_DS2_EIG
 Fermi (or HOMO) energy (hartree) =  -0.26471   Average Vxc (hartree)=  -0.51673
 Magnetization (Bohr magneton)=  1.96743463E+00
 Total spin up =  4.98371731E+00   Total spin down =  3.01628269E+00
 Eigenvalues (hartree) for nkpt=   6  k points, SPIN UP:
 kpt#   1, nband=  8, wtk=  0.12500, kpt=  0.1250  0.1250  0.1250 (reduced coord)
  -0.48411   -0.38615   -0.38615   -0.30587   -0.30587   -0.27293    0.33747    0.33747
      occupation numbers for kpt#   1
   1.00000    0.99999    0.99999    0.98396    0.98396    0.69467    0.00000    0.00000
 kpt#   2, nband=  8, wtk=  0.18750, kpt=  0.3750  0.1250  0.1250 (reduced coord)
  -0.43050   -0.40581   -0.35505   -0.30565   -0.29952   -0.13308   -0.00401    0.24171
      occupation numbers for kpt#   2
   1.00000    1.00000    0.99988    0.98361    0.97015    0.00000    0.00000    0.00000
 kpt#   3, nband=  8, wtk=  0.09375, kpt= -0.1250  0.1250  0.1250 (reduced coord)
  -0.56028   -0.36286   -0.35596   -0.35596   -0.33680   -0.29738    0.54030    0.59436
      occupation numbers for kpt#   3
   1.00000    0.99995    0.99989    0.99989    0.99926    0.96329    0.00000    0.00000
 kpt#   4, nband=  8, wtk=  0.37500, kpt= -0.3750  0.3750  0.1250 (reduced coord)
  -0.44902   -0.37859   -0.36635   -0.31080   -0.26210   -0.25774    0.11693    0.38343
      occupation numbers for kpt#   4
   1.00000    0.99999    0.99996    0.99014    0.43533    0.33263    0.00000    0.00000
 kpt#   5, nband=  8, wtk=  0.12500, kpt= -0.3750 -0.3750  0.1250 (reduced coord)
  -0.40239   -0.40239   -0.38775   -0.29110   -0.29110   -0.02017   -0.02017    0.05268
      occupation numbers for kpt#   5
   1.00000    1.00000    1.00000    0.93338    0.93338    0.00000    0.00000    0.00000
 kpt#   6, nband=  8, wtk=  0.09375, kpt= -0.3750  0.3750  0.3750 (reduced coord)
  -0.43218   -0.42089   -0.28211   -0.28211   -0.26539   -0.11521    0.15139    0.15139
      occupation numbers for kpt#   6
   1.00000    1.00000    0.85081    0.85081    0.51718    0.00000    0.00000    0.00000
 Eigenvalues (hartree) for nkpt=   6  k points, SPIN DOWN:
 kpt#   1, nband=  8, wtk=  0.12500, kpt=  0.1250  0.1250  0.1250 (reduced coord)
  -0.46637   -0.32383   -0.32383   -0.21767   -0.21767   -0.20371    0.36261    0.36261
      occupation numbers for kpt#   1
   1.00000    0.99730    0.99730    0.00898    0.00898    0.00224    0.00000    0.00000
 kpt#   2, nband=  8, wtk=  0.18750, kpt=  0.3750  0.1250  0.1250 (reduced coord)
  -0.38007   -0.34663   -0.31337   -0.21419   -0.21297   -0.08571    0.04004    0.26787
      occupation numbers for kpt#   2
   0.99999    0.99972    0.99236    0.00636    0.00563    0.00000    0.00000    0.00000
 kpt#   3, nband=  8, wtk=  0.09375, kpt= -0.1250  0.1250  0.1250 (reduced coord)
  -0.54570   -0.29410   -0.28953   -0.28953   -0.25191   -0.20706    0.55508    0.61701
      occupation numbers for kpt#   3
   1.00000    0.94974    0.92292    0.92292    0.21758    0.00313    0.00000    0.00000
 kpt#   4, nband=  8, wtk=  0.37500, kpt= -0.3750  0.3750  0.1250 (reduced coord)
  -0.41468   -0.31507   -0.30952   -0.23338   -0.18841   -0.18354    0.15424    0.40953
      occupation numbers for kpt#   4
   1.00000    0.99355    0.98881    0.04178    0.00049    0.00030    0.00000    0.00000
 kpt#   5, nband=  8, wtk=  0.12500, kpt= -0.3750 -0.3750  0.1250 (reduced coord)
  -0.34311   -0.34311   -0.32904   -0.21595   -0.21595    0.02085    0.02085    0.08657
      occupation numbers for kpt#   5
   0.99961    0.99961    0.99840    0.00757    0.00757    0.00000    0.00000    0.00000
 kpt#   6, nband=  8, wtk=  0.09375, kpt= -0.3750  0.3750  0.3750 (reduced coord)
  -0.37452   -0.35391   -0.21390   -0.21390   -0.19116   -0.07815    0.17586    0.17586
      occupation numbers for kpt#   6
   0.99998    0.99987    0.00618    0.00618    0.00064    0.00000    0.00000    0.00000
 Total charge density [el/Bohr^3]
      Maximum=    6.3401E-01  at reduced coord.    0.8333    0.8333    0.8333
 Next maximum=    6.3401E-01  at reduced coord.    0.0000    0.0000    0.8333
      Minimum=    1.2373E-03  at reduced coord.    0.0000    0.0000    0.0000
 Next minimum=    3.3100E-02  at reduced coord.    0.5000    0.5000    0.0000
   Integrated=    8.0000E+00
 Spin up density      [el/Bohr^3]
      Maximum=    4.5297E-01  at reduced coord.    0.0000    0.8333    0.8333
 Next maximum=    4.5297E-01  at reduced coord.    0.8333    0.0000    0.8333
      Minimum=    6.5629E-04  at reduced coord.    0.0000    0.0000    0.0000
 Next minimum=    1.6191E-02  at reduced coord.    0.5000    0.5000    0.0000
   Integrated=    4.9837E+00
 Spin down density    [el/Bohr^3]
      Maximum=    2.3449E-01  at reduced coord.    0.8333    0.8333    0.8333
 Next maximum=    2.3449E-01  at reduced coord.    0.0000    0.0000    0.8333
      Minimum=    5.8096E-04  at reduced coord.    0.0000    0.0000    0.0000
 Next minimum=    1.2356E-02  at reduced coord.    0.0556    0.0556    0.0000
   Integrated=    3.0163E+00
 Magnetization (spin up - spin down) [el/Bohr^3]
      Maximum=    3.2795E-01  at reduced coord.    0.0000    0.8333    0.8333
 Next maximum=    3.2795E-01  at reduced coord.    0.8333    0.0000    0.8333
      Minimum=   -1.8203E-03  at reduced coord.    0.7222    0.5000    0.2222
 Next minimum=   -1.8203E-03  at reduced coord.    0.5000    0.7222    0.2222
   Integrated=    1.9674E+00
 Relative magnetization (=zeta, between -1 and 1)
      Maximum=    5.7306E-01  at reduced coord.    0.0000    0.8889    0.8889
 Next maximum=    5.7306E-01  at reduced coord.    0.8889    0.0000    0.8889
      Minimum=   -4.8326E-02  at reduced coord.    0.7222    0.5000    0.2222
 Next minimum=   -4.8326E-02  at reduced coord.    0.5000    0.7222    0.2222

--------------------------------------------------------------------------------
 Components of total free energy (in Hartree) :

    Kinetic energy  =  2.44782711522292E+01
    Hartree energy  =  2.46958391773031E+00
    XC energy       = -1.04649580759332E+01
    Ewald energy    = -2.14862491483900E+01
    PspCore energy  =  6.23368243229498E+00
    Loc. psp. energy=  2.06555632327861E+00
    NL   psp  energy= -2.79550307457019E+01
    >>>>> Internal E= -2.46591441444921E+01

    -kT*entropy     = -1.16487232750329E-02
    >>>>>>>>> Etotal= -2.46707928677671E+01

 Other information on the energy :
    Total energy(eV)= -6.71326414855362E+02 ; Band energy (Ha)=  -2.8492022126E+00
--------------------------------------------------------------------------------

 Cartesian components of stress tensor (hartree/bohr^3)
  sigma(1 1)=  1.86261356E-02  sigma(3 2)=  0.00000000E+00
  sigma(2 2)=  1.86261356E-02  sigma(3 1)=  0.00000000E+00
  sigma(3 3)=  1.86261356E-02  sigma(2 1)=  0.00000000E+00

-Cartesian components of stress tensor (GPa)         [Pressure= -5.4800E+02 GPa]
- sigma(1 1)=  5.47999736E+02  sigma(3 2)=  0.00000000E+00
- sigma(2 2)=  5.47999736E+02  sigma(3 1)=  0.00000000E+00
- sigma(3 3)=  5.47999736E+02  sigma(2 1)=  0.00000000E+00

== END DATASET(S) ==============================================================
================================================================================
  
 -outvars: echo values of variables after computation  --------
            acell      5.4200000000E+00  5.4200000000E+00  5.4200000000E+00 Bohr
              amu      5.58470000E+01
        bs_loband1          0
        bs_loband2          0       0
             ecut      1.80000000E+01 Hartree
           etotal1    -2.4661707268E+01
           etotal2    -2.4670792868E+01
            fcart1    -0.0000000000E+00 -0.0000000000E+00 -0.0000000000E+00
            fcart2    -0.0000000000E+00 -0.0000000000E+00 -0.0000000000E+00
-          fftalg         312
           jdtset        1    2
              kpt      1.25000000E-01  1.25000000E-01  1.25000000E-01
                       3.75000000E-01  1.25000000E-01  1.25000000E-01
                      -1.25000000E-01  1.25000000E-01  1.25000000E-01
                      -3.75000000E-01  3.75000000E-01  1.25000000E-01
                      -3.75000000E-01 -3.75000000E-01  1.25000000E-01
                      -3.75000000E-01  3.75000000E-01  3.75000000E-01
         kptrlatt        4    0    0      0    4    0      0    0    4
          kptrlen      1.87754308E+01
P           mkmem1          3
P           mkmem2          6
            natom           1
            nband1          8
            nband2          8
           ndtset           2
            ngfft          18      18      18
             nkpt           6
           nspden1          1
           nspden2          2
           nsppol1          1
           nsppol2          2
            nstep          50
             nsym          48
           ntypat           1
              occ1     2.000000  1.999891  1.999891  1.229151  1.229151  0.286756
                       0.000000  0.000000
                       1.999999  1.999987  1.998982  1.142097  0.970197  0.000001
                       0.000000  0.000000
                       2.000000  1.998522  1.997347  1.997347  1.951611  0.760699
                       0.000000  0.000000
                       2.000000  1.999757  1.999291  1.640524  0.091742  0.055543
                       0.000000  0.000000
                       1.999978  1.999978  1.999921  0.859640  0.859640  0.000000
                       0.000000  0.000000
                       1.999999  1.999995  0.595113  0.595113  0.115635  0.000000
                       0.000000  0.000000
              occ2     1.000000  0.999995  0.999995  0.983960  0.983960  0.694675
                       0.000000  0.000000
                       1.000000  0.999999  0.999881  0.983611  0.970152  0.000002
                       0.000000  0.000000
                       1.000000  0.999945  0.999891  0.999891  0.999261  0.963285
                       0.000000  0.000000
                       1.000000  0.999989  0.999961  0.990137  0.435333  0.332627
                       0.000000  0.000000
                       0.999999  0.999999  0.999995  0.933376  0.933376  0.000000
                       0.000000  0.000000
                       1.000000  1.000000  0.850805  0.850805  0.517177  0.000000
                       0.000000  0.000000
                       1.000000  0.997302  0.997302  0.008977  0.008977  0.002239
                       0.000000  0.000000
                       0.999990  0.999723  0.992359  0.006357  0.005633  0.000000
                       0.000000  0.000000
                       1.000000  0.949745  0.922917  0.922917  0.217576  0.003128
                       0.000000  0.000000
                       1.000000  0.993545  0.988810  0.041784  0.000486  0.000299
                       0.000000  0.000000
                       0.999607  0.999607  0.998396  0.007571  0.007571  0.000000
                       0.000000  0.000000
                       0.999983  0.999866  0.006180  0.006180  0.000639  0.000000
                       0.000000  0.000000
           occopt           3
           prtdos           1
           prtvol           2
            rprim     -5.0000000000E-01  5.0000000000E-01  5.0000000000E-01
                       5.0000000000E-01 -5.0000000000E-01  5.0000000000E-01
                       5.0000000000E-01  5.0000000000E-01 -5.0000000000E-01
           shiftk      5.00000000E-01  5.00000000E-01  5.00000000E-01
          spgroup         229
           spinat1     0.0000000000E+00  0.0000000000E+00  0.0000000000E+00
           spinat2     0.0000000000E+00  0.0000000000E+00  4.0000000000E+00
           strten1     1.8895257787E-02  1.8895257787E-02  1.8895257787E-02
                       0.0000000000E+00  0.0000000000E+00  0.0000000000E+00
           strten2     1.8626135571E-02  1.8626135571E-02  1.8626135571E-02
                       0.0000000000E+00  0.0000000000E+00  0.0000000000E+00
           symrel      1  0  0   0  1  0   0  0  1      -1  0  0   0 -1  0   0  0 -1
                      -1 -1 -1   0  0  1   0  1  0       1  1  1   0  0 -1   0 -1  0
                       0  1  0   1  0  0  -1 -1 -1       0 -1  0  -1  0  0   1  1  1
                       0  0  1  -1 -1 -1   1  0  0       0  0 -1   1  1  1  -1  0  0
                       0  1  0   1  0  0   0  0  1       0 -1  0  -1  0  0   0  0 -1
                      -1 -1 -1   0  0  1   1  0  0       1  1  1   0  0 -1  -1  0  0
                       1  0  0   0  1  0  -1 -1 -1      -1  0  0   0 -1  0   1  1  1
                       0  0  1  -1 -1 -1   0  1  0       0  0 -1   1  1  1   0 -1  0
                      -1 -1 -1   1  0  0   0  0  1       1  1  1  -1  0  0   0  0 -1
                       0  1  0   0  0  1   1  0  0       0 -1  0   0  0 -1  -1  0  0
                       1  0  0  -1 -1 -1   0  1  0      -1  0  0   1  1  1   0 -1  0
                       0  0  1   0  1  0  -1 -1 -1       0  0 -1   0 -1  0   1  1  1
                       1  0  0  -1 -1 -1   0  0  1      -1  0  0   1  1  1   0  0 -1
                       0  1  0   0  0  1  -1 -1 -1       0 -1  0   0  0 -1   1  1  1
                      -1 -1 -1   1  0  0   0  1  0       1  1  1  -1  0  0   0 -1  0
                       0  0  1   0  1  0   1  0  0       0  0 -1   0 -1  0  -1  0  0
                       0  1  0  -1 -1 -1   0  0  1       0 -1  0   1  1  1   0  0 -1
                       1  0  0   0  0  1  -1 -1 -1      -1  0  0   0  0 -1   1  1  1
                      -1 -1 -1   0  1  0   1  0  0       1  1  1   0 -1  0  -1  0  0
                       0  0  1   1  0  0   0  1  0       0  0 -1  -1  0  0   0 -1  0
                      -1 -1 -1   0  1  0   0  0  1       1  1  1   0 -1  0   0  0 -1
                       1  0  0   0  0  1   0  1  0      -1  0  0   0  0 -1   0 -1  0
                       0  1  0  -1 -1 -1   1  0  0       0 -1  0   1  1  1  -1  0  0
                       0  0  1   1  0  0  -1 -1 -1       0  0 -1  -1  0  0   1  1  1
           tolvrs      1.00000000E-10
            typat      1
              wtk        0.12500    0.18750    0.09375    0.37500    0.12500    0.09375
            znucl       26.00000

================================================================================


- Timing analysis has been suppressed with timopt=0



================================================================================

 Suggested references for the acknowledgment of ABINIT usage.

 The users of ABINIT have little formal obligations with respect to the ABINIT group
 (those specified in the GNU General Public License, http://www.gnu.org/copyleft/gpl.txt).
 However, it is common practice in the scientific literature,
 to acknowledge the efforts of people that have made the research possible.
 In this spirit, please find below suggested citations of work written by ABINIT developers,
 corresponding to implementations inside of ABINIT that you have used in the present run.
 Note also that it will be of great value to readers of publications presenting these results,
 to read papers enabling them to understand the theoretical formalism and details
 of the ABINIT implementation.
 For information on why they are suggested, see also https://docs.abinit.org/theory/acknowledgments.
-
- [1] Recent developments in the ABINIT software package.
- Computer Phys. Comm. 205, 106 (2016).
- X.Gonze, F.Jollet, F.Abreu Araujo, D.Adams, B.Amadon, T.Applencourt,
- C.Audouze, J.-M.Beuken, J.Bieder, A.Bokhanchuk, E.Bousquet, F.Bruneval
- D.Caliste, M.Cote, F.Dahm, F.Da Pieve, M.Delaveau, M.Di Gennaro,
- B.Dorado, C.Espejo, G.Geneste, L.Genovese, A.Gerossier, M.Giantomassi,
- Y.Gillet, D.R.Hamann, L.He, G.Jomard, J.Laflamme Janssen, S.Le Roux,
- A.Levitt, A.Lherbier, F.Liu, I.Lukacevic, A.Martin, C.Martins,
- M.J.T.Oliveira, S.Ponce, Y.Pouillon, T.Rangel, G.-M.Rignanese,
- A.H.Romero, B.Rousseau, O.Rubel, A.A.Shukri, M.Stankovski, M.Torrent,
- M.J.Van Setten, B.Van Troeye, M.J.Verstraete, D.Waroquier, J.Wiktor,
- B.Xu, A.Zhou, J.W.Zwanziger.
- Comment : the fourth generic paper describing the ABINIT project.
- Note that a version of this paper, that is not formatted for Computer Phys. Comm. 
- is available at https://www.abinit.org/about/ABINIT16.pdf .
- The licence allows the authors to put it on the Web.
- DOI and bibtex : see https://docs.abinit.org/theory/bibliography/#gonze2016
-
- [2] ABINIT : First-principles approach of materials and nanosystem properties.
- Computer Phys. Comm. 180, 2582-2615 (2009).
- X. Gonze, B. Amadon, P.-M. Anglade, J.-M. Beuken, F. Bottin, P. Boulanger, F. Bruneval,
- D. Caliste, R. Caracas, M. Cote, T. Deutsch, L. Genovese, Ph. Ghosez, M. Giantomassi
- S. Goedecker, D.R. Hamann, P. Hermet, F. Jollet, G. Jomard, S. Leroux, M. Mancini, S. Mazevet,
- M.J.T. Oliveira, G. Onida, Y. Pouillon, T. Rangel, G.-M. Rignanese, D. Sangalli, R. Shaltaf,
- M. Torrent, M.J. Verstraete, G. Zerah, J.W. Zwanziger
- Comment : the third generic paper describing the ABINIT project.
- Note that a version of this paper, that is not formatted for Computer Phys. Comm. 
- is available at https://www.abinit.org/about/ABINIT_CPC_v10.pdf .
- The licence allows the authors to put it on the Web.
- DOI and bibtex : see https://docs.abinit.org/theory/bibliography/#gonze2009
-
- [3] A brief introduction to the ABINIT software package.
- Z. Kristallogr. 220, 558-562 (2005).
- X. Gonze, G.-M. Rignanese, M. Verstraete, J.-M. Beuken, Y. Pouillon, R. Caracas, F. Jollet,
- M. Torrent, G. Zerah, M. Mikami, Ph. Ghosez, M. Veithen, J.-Y. Raty, V. Olevano, F. Bruneval,
- L. Reining, R. Godby, G. Onida, D.R. Hamann, and D.C. Allan.
- Comment : the second generic paper describing the ABINIT project. Note that this paper
- should be cited especially if you are using the GW part of ABINIT, as several authors
- of this part are not in the list of authors of the first or third paper.
- The .pdf of the latter paper is available at https://www.abinit.org/about/zfk_0505-06_558-562.pdf.
- Note that it should not redistributed (Copyright by Oldenburg Wissenshaftverlag,
- the licence allows the authors to put it on the Web).
- DOI and bibtex : see https://docs.abinit.org/theory/bibliography/#gonze2005
-
- And optionally:
-
- [4] First-principles computation of material properties : the ABINIT software project. 
- X. Gonze, J.-M. Beuken, R. Caracas, F. Detraux, M. Fuchs, G.-M. Rignanese, L. Sindic,
- M. Verstraete, G. Zerah, F. Jollet, M. Torrent, A. Roy, M. Mikami, Ph. Ghosez, J.-Y. Raty, D.C. Allan.
- Computational Materials Science 25, 478-492 (2002). http://dx.doi.org/10.1016/S0927-0256(02)00325-7
- Comment : the original paper describing the ABINIT project.
- DOI and bibtex : see https://docs.abinit.org/theory/bibliography/#gonze2002
-
- Proc.   0 individual time (sec): cpu=          7.5  wall=          7.5

================================================================================

 Calculation completed.
.Delivered   0 WARNINGs and   0 COMMENTs to log file.
+Overall time at end (sec) : cpu=         15.0  wall=         15.1
