
.Version 8.10.3 of ABINIT 
.(MPI version, prepared for a x86_64_linux_gnu5.4 computer) 

.Copyright (C) 1998-2018 ABINIT group . 
 ABINIT comes with ABSOLUTELY NO WARRANTY.
 It is free software, and you are welcome to redistribute it
 under certain conditions (GNU General Public License,
 see ~abinit/COPYING or http://www.gnu.org/copyleft/gpl.txt).

 ABINIT is a project of the Universite Catholique de Louvain,
 Corning Inc. and other collaborators, see ~abinit/doc/developers/contributors.txt .
 Please read https://docs.abinit.org/theory/acknowledgments for suggested
 acknowledgments of the ABINIT effort.
 For more information, see https://www.abinit.org .

.Starting date : Thu 17 Oct 2019.
- ( at 09h44 )
  
- input  file    -> tbase1_5.in
- output file    -> tbase1_5.out
- root for input  files -> tbase1_5i
- root for output files -> tbase1_5o


 Symmetries : space group Pm -3 m (#221); Bravais cP (primitive cubic)
================================================================================
 Values of the parameters that define the memory need of the present run
     intxc =       0    ionmov =       0      iscf =       7    lmnmax =       1
     lnmax =       1     mgfft =      30  mpssoang =       1    mqgrid =    3001
     natom =       1  nloc_mem =       1    nspden =       1   nspinor =       1
    nsppol =       1      nsym =      48    n1xccc =       0    ntypat =       1
    occopt =       2   xclevel =       1
-    mband =           1        mffmem =           1         mkmem =           1
       mpw =         752          nfft =       27000          nkpt =           1
================================================================================
P This job should need less than                       7.776 Mbytes of memory.
  Rough estimation (10% accuracy) of disk space for files :
_ WF disk file :      0.013 Mbytes ; DEN or POT disk file :      0.208 Mbytes.
================================================================================

--------------------------------------------------------------------------------
------------- Echo of variables that govern the present computation ------------
--------------------------------------------------------------------------------
-
- outvars: echo of selected default values                                      
-   iomode0 =  0 , fftalg0 =312 , wfoptalg0 =  0
-
- outvars: echo of global parameters not present in the input file              
-  max_nthreads =    2
-
 -outvars: echo values of preprocessed input variables --------
            acell      1.0000000000E+01  1.0000000000E+01  1.0000000000E+01 Bohr
              amu      1.00794000E+00
           diemac      2.00000000E+00
             ecut      1.00000000E+01 Hartree
-          fftalg         312
           istwfk        2
           kptopt           0
P           mkmem           1
            natom           1
            nband           1
            ngfft          30      30      30
             nkpt           1
            nstep          10
             nsym          48
           ntypat           1
              occ      1.000000
           occopt           2
           prtvol           2
          spgroup         221
           spinat      0.0000000000E+00  0.0000000000E+00  1.0000000000E+00
           symrel      1  0  0   0  1  0   0  0  1      -1  0  0   0 -1  0   0  0 -1
                      -1  0  0   0  1  0   0  0 -1       1  0  0   0 -1  0   0  0  1
                      -1  0  0   0 -1  0   0  0  1       1  0  0   0  1  0   0  0 -1
                       1  0  0   0 -1  0   0  0 -1      -1  0  0   0  1  0   0  0  1
                       0  1  0   1  0  0   0  0  1       0 -1  0  -1  0  0   0  0 -1
                       0 -1  0   1  0  0   0  0 -1       0  1  0  -1  0  0   0  0  1
                       0 -1  0  -1  0  0   0  0  1       0  1  0   1  0  0   0  0 -1
                       0  1  0  -1  0  0   0  0 -1       0 -1  0   1  0  0   0  0  1
                       0  0  1   1  0  0   0  1  0       0  0 -1  -1  0  0   0 -1  0
                       0  0 -1   1  0  0   0 -1  0       0  0  1  -1  0  0   0  1  0
                       0  0 -1  -1  0  0   0  1  0       0  0  1   1  0  0   0 -1  0
                       0  0  1  -1  0  0   0 -1  0       0  0 -1   1  0  0   0  1  0
                       1  0  0   0  0  1   0  1  0      -1  0  0   0  0 -1   0 -1  0
                      -1  0  0   0  0  1   0 -1  0       1  0  0   0  0 -1   0  1  0
                      -1  0  0   0  0 -1   0  1  0       1  0  0   0  0  1   0 -1  0
                       1  0  0   0  0 -1   0 -1  0      -1  0  0   0  0  1   0  1  0
                       0  1  0   0  0  1   1  0  0       0 -1  0   0  0 -1  -1  0  0
                       0 -1  0   0  0  1  -1  0  0       0  1  0   0  0 -1   1  0  0
                       0 -1  0   0  0 -1   1  0  0       0  1  0   0  0  1  -1  0  0
                       0  1  0   0  0 -1  -1  0  0       0 -1  0   0  0  1   1  0  0
                       0  0  1   0  1  0   1  0  0       0  0 -1   0 -1  0  -1  0  0
                       0  0 -1   0  1  0  -1  0  0       0  0  1   0 -1  0   1  0  0
                       0  0 -1   0 -1  0   1  0  0       0  0  1   0  1  0  -1  0  0
                       0  0  1   0 -1  0  -1  0  0       0  0 -1   0  1  0   1  0  0
            tnons      0.0000000  0.0000000  0.0000000     0.1522000  0.0000000  0.0000000
                       0.1522000  0.0000000  0.0000000     0.0000000  0.0000000  0.0000000
                       0.1522000  0.0000000  0.0000000     0.0000000  0.0000000  0.0000000
                       0.0000000  0.0000000  0.0000000     0.1522000  0.0000000  0.0000000
                       0.0761000 -0.0761000  0.0000000     0.0761000  0.0761000  0.0000000
                       0.0761000  0.0761000  0.0000000     0.0761000 -0.0761000  0.0000000
                       0.0761000  0.0761000  0.0000000     0.0761000 -0.0761000  0.0000000
                       0.0761000 -0.0761000  0.0000000     0.0761000  0.0761000  0.0000000
                       0.0761000  0.0000000 -0.0761000     0.0761000  0.0000000  0.0761000
                       0.0761000  0.0000000  0.0761000     0.0761000  0.0000000 -0.0761000
                       0.0761000  0.0000000  0.0761000     0.0761000  0.0000000 -0.0761000
                       0.0761000  0.0000000 -0.0761000     0.0761000  0.0000000  0.0761000
                       0.0000000  0.0000000  0.0000000     0.1522000  0.0000000  0.0000000
                       0.1522000  0.0000000  0.0000000     0.0000000  0.0000000  0.0000000
                       0.1522000  0.0000000  0.0000000     0.0000000  0.0000000  0.0000000
                       0.0000000  0.0000000  0.0000000     0.1522000  0.0000000  0.0000000
                       0.0761000 -0.0761000  0.0000000     0.0761000  0.0761000  0.0000000
                       0.0761000  0.0761000  0.0000000     0.0761000 -0.0761000  0.0000000
                       0.0761000  0.0761000  0.0000000     0.0761000 -0.0761000  0.0000000
                       0.0761000 -0.0761000  0.0000000     0.0761000  0.0761000  0.0000000
                       0.0761000  0.0000000 -0.0761000     0.0761000  0.0000000  0.0761000
                       0.0761000  0.0000000  0.0761000     0.0761000  0.0000000 -0.0761000
                       0.0761000  0.0000000  0.0761000     0.0761000  0.0000000 -0.0761000
                       0.0761000  0.0000000 -0.0761000     0.0761000  0.0000000  0.0761000
           toldfe      1.00000000E-06 Hartree
            typat      1
           xangst      4.0270385574E-01  0.0000000000E+00  0.0000000000E+00
            xcart      7.6100000000E-01  0.0000000000E+00  0.0000000000E+00
             xred      7.6100000000E-02  0.0000000000E+00  0.0000000000E+00
            znucl        1.00000

================================================================================

 chkinp: Checking input parameters for consistency.

 chkinp: WARNING -
   Chksymbreak=1 . Found potentially symmetry-breaking value of tnons, 
   which is neither a rational fraction in 1/8th nor in 1/12th :
   for the symmetry number    2
   symrel is  -1  0  0  0 -1  0  0  0 -1
   tnons is     1.522000E-01    0.000000E+00    0.000000E+00
   Please, read the description of the input variable chksymbreak,
   then, if you feel confident, you might switch it to zero, or consult with the forum.

 chkinp: WARNING -
   Chksymbreak=1 . Found potentially symmetry-breaking value of tnons, 
   which is neither a rational fraction in 1/8th nor in 1/12th :
   for the symmetry number    3
   symrel is  -1  0  0  0  1  0  0  0 -1
   tnons is     1.522000E-01    0.000000E+00    0.000000E+00
   Please, read the description of the input variable chksymbreak,
   then, if you feel confident, you might switch it to zero, or consult with the forum.

 chkinp: WARNING -
   Chksymbreak=1 . Found potentially symmetry-breaking value of tnons, 
   which is neither a rational fraction in 1/8th nor in 1/12th :
   for the symmetry number    5
   symrel is  -1  0  0  0 -1  0  0  0  1
   tnons is     1.522000E-01    0.000000E+00    0.000000E+00
   Please, read the description of the input variable chksymbreak,
   then, if you feel confident, you might switch it to zero, or consult with the forum.

 chkinp: WARNING -
   Chksymbreak=1 . Found potentially symmetry-breaking value of tnons, 
   which is neither a rational fraction in 1/8th nor in 1/12th :
   for the symmetry number    8
   symrel is  -1  0  0  0  1  0  0  0  1
   tnons is     1.522000E-01    0.000000E+00    0.000000E+00
   Please, read the description of the input variable chksymbreak,
   then, if you feel confident, you might switch it to zero, or consult with the forum.

 chkinp: WARNING -
   Chksymbreak=1 . Found potentially symmetry-breaking value of tnons, 
   which is neither a rational fraction in 1/8th nor in 1/12th :
   for the symmetry number    9
   symrel is   0  1  0  1  0  0  0  0  1
   tnons is     7.610000E-02   -7.610000E-02    0.000000E+00
   Please, read the description of the input variable chksymbreak,
   then, if you feel confident, you might switch it to zero, or consult with the forum.

 chkinp: WARNING -
   Chksymbreak=1 . Found potentially symmetry-breaking value of tnons, 
   which is neither a rational fraction in 1/8th nor in 1/12th :
   for the symmetry number    9
   symrel is   0  1  0  1  0  0  0  0  1
   tnons is     7.610000E-02   -7.610000E-02    0.000000E+00
   Please, read the description of the input variable chksymbreak,
   then, if you feel confident, you might switch it to zero, or consult with the forum.

 chkinp: WARNING -
   Chksymbreak=1 . Found potentially symmetry-breaking value of tnons, 
   which is neither a rational fraction in 1/8th nor in 1/12th :
   for the symmetry number   10
   symrel is   0 -1  0 -1  0  0  0  0 -1
   tnons is     7.610000E-02    7.610000E-02    0.000000E+00
   Please, read the description of the input variable chksymbreak,
   then, if you feel confident, you might switch it to zero, or consult with the forum.

 chkinp: WARNING -
   Chksymbreak=1 . Found potentially symmetry-breaking value of tnons, 
   which is neither a rational fraction in 1/8th nor in 1/12th :
   for the symmetry number   10
   symrel is   0 -1  0 -1  0  0  0  0 -1
   tnons is     7.610000E-02    7.610000E-02    0.000000E+00
   Please, read the description of the input variable chksymbreak,
   then, if you feel confident, you might switch it to zero, or consult with the forum.

 chkinp: WARNING -
   Chksymbreak=1 . Found potentially symmetry-breaking value of tnons, 
   which is neither a rational fraction in 1/8th nor in 1/12th :
   for the symmetry number   11
   symrel is   0 -1  0  1  0  0  0  0 -1
   tnons is     7.610000E-02    7.610000E-02    0.000000E+00
   Please, read the description of the input variable chksymbreak,
   then, if you feel confident, you might switch it to zero, or consult with the forum.

 chkinp: WARNING -
   Chksymbreak=1 . Found potentially symmetry-breaking value of tnons, 
   which is neither a rational fraction in 1/8th nor in 1/12th :
   for the symmetry number   11
   symrel is   0 -1  0  1  0  0  0  0 -1
   tnons is     7.610000E-02    7.610000E-02    0.000000E+00
   Please, read the description of the input variable chksymbreak,
   then, if you feel confident, you might switch it to zero, or consult with the forum.

 chkinp: WARNING -
   Chksymbreak=1 . Found potentially symmetry-breaking value of tnons, 
   which is neither a rational fraction in 1/8th nor in 1/12th :
   for the symmetry number   12
   symrel is   0  1  0 -1  0  0  0  0  1
   tnons is     7.610000E-02   -7.610000E-02    0.000000E+00
   Please, read the description of the input variable chksymbreak,
   then, if you feel confident, you might switch it to zero, or consult with the forum.

 chkinp: WARNING -
   Chksymbreak=1 . Found potentially symmetry-breaking value of tnons, 
   which is neither a rational fraction in 1/8th nor in 1/12th :
   for the symmetry number   12
   symrel is   0  1  0 -1  0  0  0  0  1
   tnons is     7.610000E-02   -7.610000E-02    0.000000E+00
   Please, read the description of the input variable chksymbreak,
   then, if you feel confident, you might switch it to zero, or consult with the forum.

 chkinp: WARNING -
   Chksymbreak=1 . Found potentially symmetry-breaking value of tnons, 
   which is neither a rational fraction in 1/8th nor in 1/12th :
   for the symmetry number   13
   symrel is   0 -1  0 -1  0  0  0  0  1
   tnons is     7.610000E-02    7.610000E-02    0.000000E+00
   Please, read the description of the input variable chksymbreak,
   then, if you feel confident, you might switch it to zero, or consult with the forum.

 chkinp: WARNING -
   Chksymbreak=1 . Found potentially symmetry-breaking value of tnons, 
   which is neither a rational fraction in 1/8th nor in 1/12th :
   for the symmetry number   13
   symrel is   0 -1  0 -1  0  0  0  0  1
   tnons is     7.610000E-02    7.610000E-02    0.000000E+00
   Please, read the description of the input variable chksymbreak,
   then, if you feel confident, you might switch it to zero, or consult with the forum.

 chkinp: WARNING -
   Chksymbreak=1 . Found potentially symmetry-breaking value of tnons, 
   which is neither a rational fraction in 1/8th nor in 1/12th :
   for the symmetry number   14
   symrel is   0  1  0  1  0  0  0  0 -1
   tnons is     7.610000E-02   -7.610000E-02    0.000000E+00
   Please, read the description of the input variable chksymbreak,
   then, if you feel confident, you might switch it to zero, or consult with the forum.

 chkinp: WARNING -
   Chksymbreak=1 . Found potentially symmetry-breaking value of tnons, 
   which is neither a rational fraction in 1/8th nor in 1/12th :
   for the symmetry number   14
   symrel is   0  1  0  1  0  0  0  0 -1
   tnons is     7.610000E-02   -7.610000E-02    0.000000E+00
   Please, read the description of the input variable chksymbreak,
   then, if you feel confident, you might switch it to zero, or consult with the forum.

 chkinp: WARNING -
   Chksymbreak=1 . Found potentially symmetry-breaking value of tnons, 
   which is neither a rational fraction in 1/8th nor in 1/12th :
   for the symmetry number   15
   symrel is   0  1  0 -1  0  0  0  0 -1
   tnons is     7.610000E-02   -7.610000E-02    0.000000E+00
   Please, read the description of the input variable chksymbreak,
   then, if you feel confident, you might switch it to zero, or consult with the forum.

 chkinp: WARNING -
   Chksymbreak=1 . Found potentially symmetry-breaking value of tnons, 
   which is neither a rational fraction in 1/8th nor in 1/12th :
   for the symmetry number   15
   symrel is   0  1  0 -1  0  0  0  0 -1
   tnons is     7.610000E-02   -7.610000E-02    0.000000E+00
   Please, read the description of the input variable chksymbreak,
   then, if you feel confident, you might switch it to zero, or consult with the forum.

 chkinp: WARNING -
   Chksymbreak=1 . Found potentially symmetry-breaking value of tnons, 
   which is neither a rational fraction in 1/8th nor in 1/12th :
   for the symmetry number   16
   symrel is   0 -1  0  1  0  0  0  0  1
   tnons is     7.610000E-02    7.610000E-02    0.000000E+00
   Please, read the description of the input variable chksymbreak,
   then, if you feel confident, you might switch it to zero, or consult with the forum.

 chkinp: WARNING -
   Chksymbreak=1 . Found potentially symmetry-breaking value of tnons, 
   which is neither a rational fraction in 1/8th nor in 1/12th :
   for the symmetry number   16
   symrel is   0 -1  0  1  0  0  0  0  1
   tnons is     7.610000E-02    7.610000E-02    0.000000E+00
   Please, read the description of the input variable chksymbreak,
   then, if you feel confident, you might switch it to zero, or consult with the forum.

 chkinp: WARNING -
   Chksymbreak=1 . Found potentially symmetry-breaking value of tnons, 
   which is neither a rational fraction in 1/8th nor in 1/12th :
   for the symmetry number   17
   symrel is   0  0  1  1  0  0  0  1  0
   tnons is     7.610000E-02    0.000000E+00   -7.610000E-02
   Please, read the description of the input variable chksymbreak,
   then, if you feel confident, you might switch it to zero, or consult with the forum.

 chkinp: WARNING -
   Chksymbreak=1 . Found potentially symmetry-breaking value of tnons, 
   which is neither a rational fraction in 1/8th nor in 1/12th :
   for the symmetry number   17
   symrel is   0  0  1  1  0  0  0  1  0
   tnons is     7.610000E-02    0.000000E+00   -7.610000E-02
   Please, read the description of the input variable chksymbreak,
   then, if you feel confident, you might switch it to zero, or consult with the forum.

 chkinp: WARNING -
   Chksymbreak=1 . Found potentially symmetry-breaking value of tnons, 
   which is neither a rational fraction in 1/8th nor in 1/12th :
   for the symmetry number   18
   symrel is   0  0 -1 -1  0  0  0 -1  0
   tnons is     7.610000E-02    0.000000E+00    7.610000E-02
   Please, read the description of the input variable chksymbreak,
   then, if you feel confident, you might switch it to zero, or consult with the forum.

 chkinp: WARNING -
   Chksymbreak=1 . Found potentially symmetry-breaking value of tnons, 
   which is neither a rational fraction in 1/8th nor in 1/12th :
   for the symmetry number   18
   symrel is   0  0 -1 -1  0  0  0 -1  0
   tnons is     7.610000E-02    0.000000E+00    7.610000E-02
   Please, read the description of the input variable chksymbreak,
   then, if you feel confident, you might switch it to zero, or consult with the forum.

 chkinp: WARNING -
   Chksymbreak=1 . Found potentially symmetry-breaking value of tnons, 
   which is neither a rational fraction in 1/8th nor in 1/12th :
   for the symmetry number   19
   symrel is   0  0 -1  1  0  0  0 -1  0
   tnons is     7.610000E-02    0.000000E+00    7.610000E-02
   Please, read the description of the input variable chksymbreak,
   then, if you feel confident, you might switch it to zero, or consult with the forum.

 chkinp: WARNING -
   Chksymbreak=1 . Found potentially symmetry-breaking value of tnons, 
   which is neither a rational fraction in 1/8th nor in 1/12th :
   for the symmetry number   19
   symrel is   0  0 -1  1  0  0  0 -1  0
   tnons is     7.610000E-02    0.000000E+00    7.610000E-02
   Please, read the description of the input variable chksymbreak,
   then, if you feel confident, you might switch it to zero, or consult with the forum.

 chkinp: WARNING -
   Chksymbreak=1 . Found potentially symmetry-breaking value of tnons, 
   which is neither a rational fraction in 1/8th nor in 1/12th :
   for the symmetry number   20
   symrel is   0  0  1 -1  0  0  0  1  0
   tnons is     7.610000E-02    0.000000E+00   -7.610000E-02
   Please, read the description of the input variable chksymbreak,
   then, if you feel confident, you might switch it to zero, or consult with the forum.

 chkinp: WARNING -
   Chksymbreak=1 . Found potentially symmetry-breaking value of tnons, 
   which is neither a rational fraction in 1/8th nor in 1/12th :
   for the symmetry number   20
   symrel is   0  0  1 -1  0  0  0  1  0
   tnons is     7.610000E-02    0.000000E+00   -7.610000E-02
   Please, read the description of the input variable chksymbreak,
   then, if you feel confident, you might switch it to zero, or consult with the forum.

 chkinp: WARNING -
   Chksymbreak=1 . Found potentially symmetry-breaking value of tnons, 
   which is neither a rational fraction in 1/8th nor in 1/12th :
   for the symmetry number   21
   symrel is   0  0 -1 -1  0  0  0  1  0
   tnons is     7.610000E-02    0.000000E+00    7.610000E-02
   Please, read the description of the input variable chksymbreak,
   then, if you feel confident, you might switch it to zero, or consult with the forum.

 chkinp: WARNING -
   Chksymbreak=1 . Found potentially symmetry-breaking value of tnons, 
   which is neither a rational fraction in 1/8th nor in 1/12th :
   for the symmetry number   21
   symrel is   0  0 -1 -1  0  0  0  1  0
   tnons is     7.610000E-02    0.000000E+00    7.610000E-02
   Please, read the description of the input variable chksymbreak,
   then, if you feel confident, you might switch it to zero, or consult with the forum.

 chkinp: WARNING -
   Chksymbreak=1 . Found potentially symmetry-breaking value of tnons, 
   which is neither a rational fraction in 1/8th nor in 1/12th :
   for the symmetry number   22
   symrel is   0  0  1  1  0  0  0 -1  0
   tnons is     7.610000E-02    0.000000E+00   -7.610000E-02
   Please, read the description of the input variable chksymbreak,
   then, if you feel confident, you might switch it to zero, or consult with the forum.

 chkinp: WARNING -
   Chksymbreak=1 . Found potentially symmetry-breaking value of tnons, 
   which is neither a rational fraction in 1/8th nor in 1/12th :
   for the symmetry number   22
   symrel is   0  0  1  1  0  0  0 -1  0
   tnons is     7.610000E-02    0.000000E+00   -7.610000E-02
   Please, read the description of the input variable chksymbreak,
   then, if you feel confident, you might switch it to zero, or consult with the forum.

 chkinp: WARNING -
   Chksymbreak=1 . Found potentially symmetry-breaking value of tnons, 
   which is neither a rational fraction in 1/8th nor in 1/12th :
   for the symmetry number   23
   symrel is   0  0  1 -1  0  0  0 -1  0
   tnons is     7.610000E-02    0.000000E+00   -7.610000E-02
   Please, read the description of the input variable chksymbreak,
   then, if you feel confident, you might switch it to zero, or consult with the forum.

 chkinp: WARNING -
   Chksymbreak=1 . Found potentially symmetry-breaking value of tnons, 
   which is neither a rational fraction in 1/8th nor in 1/12th :
   for the symmetry number   23
   symrel is   0  0  1 -1  0  0  0 -1  0
   tnons is     7.610000E-02    0.000000E+00   -7.610000E-02
   Please, read the description of the input variable chksymbreak,
   then, if you feel confident, you might switch it to zero, or consult with the forum.

 chkinp: WARNING -
   Chksymbreak=1 . Found potentially symmetry-breaking value of tnons, 
   which is neither a rational fraction in 1/8th nor in 1/12th :
   for the symmetry number   24
   symrel is   0  0 -1  1  0  0  0  1  0
   tnons is     7.610000E-02    0.000000E+00    7.610000E-02
   Please, read the description of the input variable chksymbreak,
   then, if you feel confident, you might switch it to zero, or consult with the forum.

 chkinp: WARNING -
   Chksymbreak=1 . Found potentially symmetry-breaking value of tnons, 
   which is neither a rational fraction in 1/8th nor in 1/12th :
   for the symmetry number   24
   symrel is   0  0 -1  1  0  0  0  1  0
   tnons is     7.610000E-02    0.000000E+00    7.610000E-02
   Please, read the description of the input variable chksymbreak,
   then, if you feel confident, you might switch it to zero, or consult with the forum.

 chkinp: WARNING -
   Chksymbreak=1 . Found potentially symmetry-breaking value of tnons, 
   which is neither a rational fraction in 1/8th nor in 1/12th :
   for the symmetry number   26
   symrel is  -1  0  0  0  0 -1  0 -1  0
   tnons is     1.522000E-01    0.000000E+00    0.000000E+00
   Please, read the description of the input variable chksymbreak,
   then, if you feel confident, you might switch it to zero, or consult with the forum.

 chkinp: WARNING -
   Chksymbreak=1 . Found potentially symmetry-breaking value of tnons, 
   which is neither a rational fraction in 1/8th nor in 1/12th :
   for the symmetry number   27
   symrel is  -1  0  0  0  0  1  0 -1  0
   tnons is     1.522000E-01    0.000000E+00    0.000000E+00
   Please, read the description of the input variable chksymbreak,
   then, if you feel confident, you might switch it to zero, or consult with the forum.

 chkinp: WARNING -
   Chksymbreak=1 . Found potentially symmetry-breaking value of tnons, 
   which is neither a rational fraction in 1/8th nor in 1/12th :
   for the symmetry number   29
   symrel is  -1  0  0  0  0 -1  0  1  0
   tnons is     1.522000E-01    0.000000E+00    0.000000E+00
   Please, read the description of the input variable chksymbreak,
   then, if you feel confident, you might switch it to zero, or consult with the forum.

 chkinp: WARNING -
   Chksymbreak=1 . Found potentially symmetry-breaking value of tnons, 
   which is neither a rational fraction in 1/8th nor in 1/12th :
   for the symmetry number   32
   symrel is  -1  0  0  0  0  1  0  1  0
   tnons is     1.522000E-01    0.000000E+00    0.000000E+00
   Please, read the description of the input variable chksymbreak,
   then, if you feel confident, you might switch it to zero, or consult with the forum.

 chkinp: WARNING -
   Chksymbreak=1 . Found potentially symmetry-breaking value of tnons, 
   which is neither a rational fraction in 1/8th nor in 1/12th :
   for the symmetry number   33
   symrel is   0  1  0  0  0  1  1  0  0
   tnons is     7.610000E-02   -7.610000E-02    0.000000E+00
   Please, read the description of the input variable chksymbreak,
   then, if you feel confident, you might switch it to zero, or consult with the forum.

 chkinp: WARNING -
   Chksymbreak=1 . Found potentially symmetry-breaking value of tnons, 
   which is neither a rational fraction in 1/8th nor in 1/12th :
   for the symmetry number   33
   symrel is   0  1  0  0  0  1  1  0  0
   tnons is     7.610000E-02   -7.610000E-02    0.000000E+00
   Please, read the description of the input variable chksymbreak,
   then, if you feel confident, you might switch it to zero, or consult with the forum.

 chkinp: WARNING -
   Chksymbreak=1 . Found potentially symmetry-breaking value of tnons, 
   which is neither a rational fraction in 1/8th nor in 1/12th :
   for the symmetry number   34
   symrel is   0 -1  0  0  0 -1 -1  0  0
   tnons is     7.610000E-02    7.610000E-02    0.000000E+00
   Please, read the description of the input variable chksymbreak,
   then, if you feel confident, you might switch it to zero, or consult with the forum.

 chkinp: WARNING -
   Chksymbreak=1 . Found potentially symmetry-breaking value of tnons, 
   which is neither a rational fraction in 1/8th nor in 1/12th :
   for the symmetry number   34
   symrel is   0 -1  0  0  0 -1 -1  0  0
   tnons is     7.610000E-02    7.610000E-02    0.000000E+00
   Please, read the description of the input variable chksymbreak,
   then, if you feel confident, you might switch it to zero, or consult with the forum.

 chkinp: WARNING -
   Chksymbreak=1 . Found potentially symmetry-breaking value of tnons, 
   which is neither a rational fraction in 1/8th nor in 1/12th :
   for the symmetry number   35
   symrel is   0 -1  0  0  0  1 -1  0  0
   tnons is     7.610000E-02    7.610000E-02    0.000000E+00
   Please, read the description of the input variable chksymbreak,
   then, if you feel confident, you might switch it to zero, or consult with the forum.

 chkinp: WARNING -
   Chksymbreak=1 . Found potentially symmetry-breaking value of tnons, 
   which is neither a rational fraction in 1/8th nor in 1/12th :
   for the symmetry number   35
   symrel is   0 -1  0  0  0  1 -1  0  0
   tnons is     7.610000E-02    7.610000E-02    0.000000E+00
   Please, read the description of the input variable chksymbreak,
   then, if you feel confident, you might switch it to zero, or consult with the forum.

 chkinp: WARNING -
   Chksymbreak=1 . Found potentially symmetry-breaking value of tnons, 
   which is neither a rational fraction in 1/8th nor in 1/12th :
   for the symmetry number   36
   symrel is   0  1  0  0  0 -1  1  0  0
   tnons is     7.610000E-02   -7.610000E-02    0.000000E+00
   Please, read the description of the input variable chksymbreak,
   then, if you feel confident, you might switch it to zero, or consult with the forum.

 chkinp: WARNING -
   Chksymbreak=1 . Found potentially symmetry-breaking value of tnons, 
   which is neither a rational fraction in 1/8th nor in 1/12th :
   for the symmetry number   36
   symrel is   0  1  0  0  0 -1  1  0  0
   tnons is     7.610000E-02   -7.610000E-02    0.000000E+00
   Please, read the description of the input variable chksymbreak,
   then, if you feel confident, you might switch it to zero, or consult with the forum.

 chkinp: WARNING -
   Chksymbreak=1 . Found potentially symmetry-breaking value of tnons, 
   which is neither a rational fraction in 1/8th nor in 1/12th :
   for the symmetry number   37
   symrel is   0 -1  0  0  0 -1  1  0  0
   tnons is     7.610000E-02    7.610000E-02    0.000000E+00
   Please, read the description of the input variable chksymbreak,
   then, if you feel confident, you might switch it to zero, or consult with the forum.

 chkinp: WARNING -
   Chksymbreak=1 . Found potentially symmetry-breaking value of tnons, 
   which is neither a rational fraction in 1/8th nor in 1/12th :
   for the symmetry number   37
   symrel is   0 -1  0  0  0 -1  1  0  0
   tnons is     7.610000E-02    7.610000E-02    0.000000E+00
   Please, read the description of the input variable chksymbreak,
   then, if you feel confident, you might switch it to zero, or consult with the forum.

 chkinp: WARNING -
   Chksymbreak=1 . Found potentially symmetry-breaking value of tnons, 
   which is neither a rational fraction in 1/8th nor in 1/12th :
   for the symmetry number   38
   symrel is   0  1  0  0  0  1 -1  0  0
   tnons is     7.610000E-02   -7.610000E-02    0.000000E+00
   Please, read the description of the input variable chksymbreak,
   then, if you feel confident, you might switch it to zero, or consult with the forum.

 chkinp: WARNING -
   Chksymbreak=1 . Found potentially symmetry-breaking value of tnons, 
   which is neither a rational fraction in 1/8th nor in 1/12th :
   for the symmetry number   38
   symrel is   0  1  0  0  0  1 -1  0  0
   tnons is     7.610000E-02   -7.610000E-02    0.000000E+00
   Please, read the description of the input variable chksymbreak,
   then, if you feel confident, you might switch it to zero, or consult with the forum.

 chkinp: WARNING -
   Chksymbreak=1 . Found potentially symmetry-breaking value of tnons, 
   which is neither a rational fraction in 1/8th nor in 1/12th :
   for the symmetry number   39
   symrel is   0  1  0  0  0 -1 -1  0  0
   tnons is     7.610000E-02   -7.610000E-02    0.000000E+00
   Please, read the description of the input variable chksymbreak,
   then, if you feel confident, you might switch it to zero, or consult with the forum.

 chkinp: WARNING -
   Chksymbreak=1 . Found potentially symmetry-breaking value of tnons, 
   which is neither a rational fraction in 1/8th nor in 1/12th :
   for the symmetry number   39
   symrel is   0  1  0  0  0 -1 -1  0  0
   tnons is     7.610000E-02   -7.610000E-02    0.000000E+00
   Please, read the description of the input variable chksymbreak,
   then, if you feel confident, you might switch it to zero, or consult with the forum.

 chkinp: WARNING -
   Chksymbreak=1 . Found potentially symmetry-breaking value of tnons, 
   which is neither a rational fraction in 1/8th nor in 1/12th :
   for the symmetry number   40
   symrel is   0 -1  0  0  0  1  1  0  0
   tnons is     7.610000E-02    7.610000E-02    0.000000E+00
   Please, read the description of the input variable chksymbreak,
   then, if you feel confident, you might switch it to zero, or consult with the forum.

 chkinp: WARNING -
   Chksymbreak=1 . Found potentially symmetry-breaking value of tnons, 
   which is neither a rational fraction in 1/8th nor in 1/12th :
   for the symmetry number   40
   symrel is   0 -1  0  0  0  1  1  0  0
   tnons is     7.610000E-02    7.610000E-02    0.000000E+00
   Please, read the description of the input variable chksymbreak,
   then, if you feel confident, you might switch it to zero, or consult with the forum.

 chkinp: WARNING -
   Chksymbreak=1 . Found potentially symmetry-breaking value of tnons, 
   which is neither a rational fraction in 1/8th nor in 1/12th :
   for the symmetry number   41
   symrel is   0  0  1  0  1  0  1  0  0
   tnons is     7.610000E-02    0.000000E+00   -7.610000E-02
   Please, read the description of the input variable chksymbreak,
   then, if you feel confident, you might switch it to zero, or consult with the forum.

 chkinp: WARNING -
   Chksymbreak=1 . Found potentially symmetry-breaking value of tnons, 
   which is neither a rational fraction in 1/8th nor in 1/12th :
   for the symmetry number   41
   symrel is   0  0  1  0  1  0  1  0  0
   tnons is     7.610000E-02    0.000000E+00   -7.610000E-02
   Please, read the description of the input variable chksymbreak,
   then, if you feel confident, you might switch it to zero, or consult with the forum.

 chkinp: WARNING -
   Chksymbreak=1 . Found potentially symmetry-breaking value of tnons, 
   which is neither a rational fraction in 1/8th nor in 1/12th :
   for the symmetry number   42
   symrel is   0  0 -1  0 -1  0 -1  0  0
   tnons is     7.610000E-02    0.000000E+00    7.610000E-02
   Please, read the description of the input variable chksymbreak,
   then, if you feel confident, you might switch it to zero, or consult with the forum.

 chkinp: WARNING -
   Chksymbreak=1 . Found potentially symmetry-breaking value of tnons, 
   which is neither a rational fraction in 1/8th nor in 1/12th :
   for the symmetry number   42
   symrel is   0  0 -1  0 -1  0 -1  0  0
   tnons is     7.610000E-02    0.000000E+00    7.610000E-02
   Please, read the description of the input variable chksymbreak,
   then, if you feel confident, you might switch it to zero, or consult with the forum.

 chkinp: WARNING -
   Chksymbreak=1 . Found potentially symmetry-breaking value of tnons, 
   which is neither a rational fraction in 1/8th nor in 1/12th :
   for the symmetry number   43
   symrel is   0  0 -1  0  1  0 -1  0  0
   tnons is     7.610000E-02    0.000000E+00    7.610000E-02
   Please, read the description of the input variable chksymbreak,
   then, if you feel confident, you might switch it to zero, or consult with the forum.

 chkinp: WARNING -
   Chksymbreak=1 . Found potentially symmetry-breaking value of tnons, 
   which is neither a rational fraction in 1/8th nor in 1/12th :
   for the symmetry number   43
   symrel is   0  0 -1  0  1  0 -1  0  0
   tnons is     7.610000E-02    0.000000E+00    7.610000E-02
   Please, read the description of the input variable chksymbreak,
   then, if you feel confident, you might switch it to zero, or consult with the forum.

 chkinp: WARNING -
   Chksymbreak=1 . Found potentially symmetry-breaking value of tnons, 
   which is neither a rational fraction in 1/8th nor in 1/12th :
   for the symmetry number   44
   symrel is   0  0  1  0 -1  0  1  0  0
   tnons is     7.610000E-02    0.000000E+00   -7.610000E-02
   Please, read the description of the input variable chksymbreak,
   then, if you feel confident, you might switch it to zero, or consult with the forum.

 chkinp: WARNING -
   Chksymbreak=1 . Found potentially symmetry-breaking value of tnons, 
   which is neither a rational fraction in 1/8th nor in 1/12th :
   for the symmetry number   44
   symrel is   0  0  1  0 -1  0  1  0  0
   tnons is     7.610000E-02    0.000000E+00   -7.610000E-02
   Please, read the description of the input variable chksymbreak,
   then, if you feel confident, you might switch it to zero, or consult with the forum.

 chkinp: WARNING -
   Chksymbreak=1 . Found potentially symmetry-breaking value of tnons, 
   which is neither a rational fraction in 1/8th nor in 1/12th :
   for the symmetry number   45
   symrel is   0  0 -1  0 -1  0  1  0  0
   tnons is     7.610000E-02    0.000000E+00    7.610000E-02
   Please, read the description of the input variable chksymbreak,
   then, if you feel confident, you might switch it to zero, or consult with the forum.

 chkinp: WARNING -
   Chksymbreak=1 . Found potentially symmetry-breaking value of tnons, 
   which is neither a rational fraction in 1/8th nor in 1/12th :
   for the symmetry number   45
   symrel is   0  0 -1  0 -1  0  1  0  0
   tnons is     7.610000E-02    0.000000E+00    7.610000E-02
   Please, read the description of the input variable chksymbreak,
   then, if you feel confident, you might switch it to zero, or consult with the forum.

 chkinp: WARNING -
   Chksymbreak=1 . Found potentially symmetry-breaking value of tnons, 
   which is neither a rational fraction in 1/8th nor in 1/12th :
   for the symmetry number   46
   symrel is   0  0  1  0  1  0 -1  0  0
   tnons is     7.610000E-02    0.000000E+00   -7.610000E-02
   Please, read the description of the input variable chksymbreak,
   then, if you feel confident, you might switch it to zero, or consult with the forum.

 chkinp: WARNING -
   Chksymbreak=1 . Found potentially symmetry-breaking value of tnons, 
   which is neither a rational fraction in 1/8th nor in 1/12th :
   for the symmetry number   46
   symrel is   0  0  1  0  1  0 -1  0  0
   tnons is     7.610000E-02    0.000000E+00   -7.610000E-02
   Please, read the description of the input variable chksymbreak,
   then, if you feel confident, you might switch it to zero, or consult with the forum.

 chkinp: WARNING -
   Chksymbreak=1 . Found potentially symmetry-breaking value of tnons, 
   which is neither a rational fraction in 1/8th nor in 1/12th :
   for the symmetry number   47
   symrel is   0  0  1  0 -1  0 -1  0  0
   tnons is     7.610000E-02    0.000000E+00   -7.610000E-02
   Please, read the description of the input variable chksymbreak,
   then, if you feel confident, you might switch it to zero, or consult with the forum.

 chkinp: WARNING -
   Chksymbreak=1 . Found potentially symmetry-breaking value of tnons, 
   which is neither a rational fraction in 1/8th nor in 1/12th :
   for the symmetry number   47
   symrel is   0  0  1  0 -1  0 -1  0  0
   tnons is     7.610000E-02    0.000000E+00   -7.610000E-02
   Please, read the description of the input variable chksymbreak,
   then, if you feel confident, you might switch it to zero, or consult with the forum.

 chkinp: WARNING -
   Chksymbreak=1 . Found potentially symmetry-breaking value of tnons, 
   which is neither a rational fraction in 1/8th nor in 1/12th :
   for the symmetry number   48
   symrel is   0  0 -1  0  1  0  1  0  0
   tnons is     7.610000E-02    0.000000E+00    7.610000E-02
   Please, read the description of the input variable chksymbreak,
   then, if you feel confident, you might switch it to zero, or consult with the forum.

 chkinp: WARNING -
   Chksymbreak=1 . Found potentially symmetry-breaking value of tnons, 
   which is neither a rational fraction in 1/8th nor in 1/12th :
   for the symmetry number   48
   symrel is   0  0 -1  0  1  0  1  0  0
   tnons is     7.610000E-02    0.000000E+00    7.610000E-02
   Please, read the description of the input variable chksymbreak,
   then, if you feel confident, you might switch it to zero, or consult with the forum.
