  ABINIT 8.11.13
  
  Give name for formatted input file: 
opt.in
  Give name for formatted output file:
opt.out
  Give root name for generic input files:
opti
  Give root name for generic output files:
opto
  Give root name for generic temporary files:
opt

.Version 8.11.13 of ABINIT 
.(MPI version, prepared for a x86_64_linux_intel14.0 computer) 

.Copyright (C) 1998-2019 ABINIT group . 
 ABINIT comes with ABSOLUTELY NO WARRANTY.
 It is free software, and you are welcome to redistribute it
 under certain conditions (GNU General Public License,
 see ~abinit/COPYING or http://www.gnu.org/copyleft/gpl.txt).

 ABINIT is a project of the Universite Catholique de Louvain,
 Corning Inc. and other collaborators, see ~abinit/doc/developers/contributors.txt .
 Please read https://docs.abinit.org/theory/acknowledgments for suggested
 acknowledgments of the ABINIT effort.
 For more information, see https://www.abinit.org .

.Starting date : Fri  3 Jan 2020.
- ( at 15h41 )
  
 
 ++++++++++++++++++++++++++++++++++++++++++++++++++++++++++++++++++++++++++++++
 
 === Build Information === 
  Version       : 8.11.13
  Build target  : x86_64_linux_intel14.0
  Build date    : 20191206
 
 === Compiler Suite === 
  C compiler       : intel14.0
  C++ compiler     : gnu14.0
  Fortran compiler : intel14.0
  CFLAGS           :  -g -O2
  CXXFLAGS         :  -g -O2 -mtune=native -march=native
  FCFLAGS          :  -g -extend-source -nofpscomp
  FC_LDFLAGS       :    -static-intel -static-libgcc
 
 === Optimizations === 
  Debug level        : basic
  Optimization level : standard
  Architecture       : intel_xeon
 
 === Multicore === 
  Parallel build : yes
  Parallel I/O   : yes
  openMP support : no
  GPU support    : no
 
 === Connectors / Fallbacks === 
  Connectors on : yes
  Fallbacks on  : yes
  DFT flavor    : libxc-fallback
  FFT flavor    : fftw3
  LINALG flavor : mkl
  TIMER flavor  : abinit
  TRIO flavor   : netcdf
 
 === Experimental features === 
  Exports             : no
  GW double-precision : yes
 
 ++++++++++++++++++++++++++++++++++++++++++++++++++++++++++++++++++++++++++++++
 

 ++++++++++++++++++++++++++++++++++++++++++++++++++++++++++++++++++++++++++++++
 Default optimizations:
   -O3


 Optimizations for 43_ptgroups:
   -O0


 ++++++++++++++++++++++++++++++++++++++++++++++++++++++++++++++++++++++++++++++


 ++++++++++++++++++++++++++++++++++++++++++++++++++++++++++++++++++++++++++++++
 CPP options activated during the build:

                  CC_INTEL                   CXX_GNU                  FC_INTEL
 
 HAVE_FC_ALLOCATABLE_DT...             HAVE_FC_ASYNC  HAVE_FC_COMMAND_ARGUMENT
 
        HAVE_FC_CONTIGUOUS           HAVE_FC_CPUTIME             HAVE_FC_ETIME
 
              HAVE_FC_EXIT             HAVE_FC_FLUSH             HAVE_FC_GAMMA
 
            HAVE_FC_GETENV            HAVE_FC_GETPID   HAVE_FC_IEEE_ARITHMETIC
 
   HAVE_FC_IEEE_EXCEPTIONS             HAVE_FC_IOMSG     HAVE_FC_ISO_C_BINDING
 
  HAVE_FC_ISO_FORTRAN_2008        HAVE_FC_LONG_LINES        HAVE_FC_MOVE_ALLOC
 
  HAVE_FC_ON_THE_FLY_SHAPE           HAVE_FC_PRIVATE         HAVE_FC_PROTECTED
 
           HAVE_FC_SHIFTLR         HAVE_FC_STREAM_IO            HAVE_FC_SYSTEM
 
                  HAVE_FFT            HAVE_FFT_FFTW3              HAVE_FFT_MPI
 
           HAVE_FFT_SERIAL               HAVE_GW_DPC        HAVE_LIBPAW_ABINIT
 
      HAVE_LIBTETRA_ABINIT                HAVE_LIBXC               HAVE_LINALG
 
         HAVE_LINALG_AXPBY        HAVE_LINALG_GEMM3M  HAVE_LINALG_MKL_IMATCOPY
 
   HAVE_LINALG_MKL_OMATADD  HAVE_LINALG_MKL_OMATCOPY   HAVE_LINALG_MKL_THREADS
 
        HAVE_LINALG_SERIAL                  HAVE_MPI                 HAVE_MPI2
 
       HAVE_MPI_IALLREDUCE        HAVE_MPI_IALLTOALL       HAVE_MPI_IALLTOALLV
 
           HAVE_MPI_IBCAST         HAVE_MPI_IGATHERV        HAVE_MPI_INTEGER16
 
               HAVE_MPI_IO HAVE_MPI_TYPE_CREATE_S...               HAVE_NETCDF
 
           HAVE_NETCDF_MPI                HAVE_NUMPY             HAVE_OS_LINUX
 
         HAVE_TIMER_ABINIT                  HAVE_XML              USE_MACROAVE
 
 ++++++++++++++++++++++++++++++++++++++++++++++++++++++++++++++++++++++++++++++

- input  file    -> opt.in
- output file    -> opt.out
- root for input  files -> opti
- root for output files -> opto
 
Netcdf library supports MPI-IO
-instrng: 53 lines of input have been read from file opt.in
 

 Please give name of formatted atomic psp file
 For atom type 1, psp file is /CECI/home/ucl/naps/jovbever/.PsP/Si/Si.psp8
  read the values zionpsp=  4.0 , pspcod=   8 , lmax=   2
 
 inpspheads: deduce mpsang = 3, n1xccc = 2501.

======================================================= 
invars1m : enter jdtset= 0
 
 symlatt: the Bravais lattice is cF (face-centered cubic)
  xred   is defined in input file
 ingeo: takes atomic coordinates from input array xred
 
 symlatt: the Bravais lattice is cF (face-centered cubic)
 
 symlatt: the Bravais lattice is cF (face-centered cubic)
 symspgr: spgroup= 227  Fd -3 m   (=Oh^7)
 symspgr: optical characteristics = isotropic
 For input ecut=  4.410000E+01 best grid ngfft=      24      24      24
       max ecut=  4.750725E+01
 
 ==== FFT mesh ====
  FFT mesh divisions ........................    24   24   24
  Augmented FFT divisions ...................    25   25   24
  FFT algorithm .............................   312
  FFT cache size ............................    16
 getmpw: optimal value of mpw= 582
 
 Symmetries : space group Fd -3 m (#227); Bravais cF (face-center cubic)
 
 getdim_nloc : deduce lmnmax  =  18, lnmax  =   6,
                      lmnmaxso=  18, lnmaxso=   6.
memory: analysis of memory needs
================================================================================
 Values of the parameters that define the memory need of the present run
     intxc =       0    ionmov =       2      iscf =       7    lmnmax =       6
     lnmax =       6     mgfft =      24  mpssoang =       3    mqgrid =    3001
     natom =       2  nloc_mem =       1    nspden =       1   nspinor =       1
    nsppol =       1      nsym =      48    n1xccc =    2501    ntypat =       1
    occopt =       1   xclevel =       2
-    mband =           4        mffmem =           1         mkmem =          55
       mpw =         582          nfft =       13824          nkpt =         110
================================================================================
P This job should need less than                       7.502 Mbytes of memory.
  Rough estimation (10% accuracy) of disk space for files :
_ WF disk file :      3.909 Mbytes ; DEN or POT disk file :      0.107 Mbytes.
================================================================================
 
 Biggest array : cg(disk), with      1.9557 MBytes.
 memana : allocated an array of      1.956 Mbytes, for testing purposes.
 memana: allocated       7.502Mbytes, for testing purposes. 
 The job will continue.
--------------------------------------------------------------------------------
------------- Echo of variables that govern the present computation ------------
--------------------------------------------------------------------------------
-
- outvars: echo of selected default values                                      
-   iomode0 =  0 , fftalg0 =312 , wfoptalg0 =  0
-
- outvars: echo of global parameters not present in the input file              
-  max_nthreads =    0
-
 -outvars: echo values of preprocessed input variables --------
 
 These variables are accessible in NetCDF format (opto_OUT.nc)

            acell      5.4695448600E+00  5.4695448600E+00  5.4695448600E+00 Bohr
              amu      2.80855000E+01
          dilatmx      1.05000000E+00
             ecut      4.00000000E+01 Hartree
           ecutsm      5.00000000E-01 Hartree
-          fftalg         312
           ionmov           2
              ixc          11
              kpt     -5.00000000E-02 -1.00000000E-01  0.00000000E+00
                      -5.00000000E-02 -2.00000000E-01  0.00000000E+00
                      -1.00000000E-01 -1.50000000E-01  0.00000000E+00
                      -5.00000000E-02 -1.50000000E-01  5.00000000E-02
                      -5.00000000E-02 -3.00000000E-01  0.00000000E+00
                      -1.00000000E-01 -2.50000000E-01  0.00000000E+00
                      -5.00000000E-02 -2.50000000E-01  5.00000000E-02
                      -1.50000000E-01 -2.00000000E-01  0.00000000E+00
                      -1.00000000E-01 -2.00000000E-01  5.00000000E-02
                      -5.00000000E-02 -2.00000000E-01  1.00000000E-01
                      -5.00000000E-02 -4.00000000E-01  0.00000000E+00
                      -1.00000000E-01 -3.50000000E-01  0.00000000E+00
                      -5.00000000E-02 -3.50000000E-01  5.00000000E-02
                      -1.50000000E-01 -3.00000000E-01  0.00000000E+00
                      -1.00000000E-01 -3.00000000E-01  5.00000000E-02
                      -5.00000000E-02 -3.00000000E-01  1.00000000E-01
                      -2.00000000E-01 -2.50000000E-01  0.00000000E+00
                      -1.50000000E-01 -2.50000000E-01  5.00000000E-02
                      -1.00000000E-01 -2.50000000E-01  1.00000000E-01
                      -5.00000000E-02 -2.50000000E-01  1.50000000E-01
                      -5.00000000E-02  5.00000000E-01  0.00000000E+00
                      -1.00000000E-01 -4.50000000E-01  0.00000000E+00
                      -5.00000000E-02 -4.50000000E-01  5.00000000E-02
                      -1.50000000E-01 -4.00000000E-01  0.00000000E+00
                      -1.00000000E-01 -4.00000000E-01  5.00000000E-02
                      -5.00000000E-02 -4.00000000E-01  1.00000000E-01
                      -2.00000000E-01 -3.50000000E-01  0.00000000E+00
                      -1.50000000E-01 -3.50000000E-01  5.00000000E-02
                      -1.00000000E-01 -3.50000000E-01  1.00000000E-01
                      -5.00000000E-02 -3.50000000E-01  1.50000000E-01
                      -2.50000000E-01 -3.00000000E-01  0.00000000E+00
                      -2.00000000E-01 -3.00000000E-01  5.00000000E-02
                      -1.50000000E-01 -3.00000000E-01  1.00000000E-01
                      -1.00000000E-01 -3.00000000E-01  1.50000000E-01
                      -5.00000000E-02 -3.00000000E-01  2.00000000E-01
                      -5.00000000E-02  4.00000000E-01  0.00000000E+00
                      -1.00000000E-01  4.50000000E-01  0.00000000E+00
                      -1.50000000E-01  5.00000000E-01  0.00000000E+00
                      -1.00000000E-01  5.00000000E-01  5.00000000E-02
                      -2.00000000E-01 -4.50000000E-01  0.00000000E+00
                      -1.50000000E-01 -4.50000000E-01  5.00000000E-02
                      -1.00000000E-01 -4.50000000E-01  1.00000000E-01
                      -5.00000000E-02 -4.50000000E-01  1.50000000E-01
                      -2.50000000E-01 -4.00000000E-01  0.00000000E+00
                      -2.00000000E-01 -4.00000000E-01  5.00000000E-02
                      -1.50000000E-01 -4.00000000E-01  1.00000000E-01
                      -1.00000000E-01 -4.00000000E-01  1.50000000E-01
                      -5.00000000E-02 -4.00000000E-01  2.00000000E-01
                      -3.00000000E-01 -3.50000000E-01  0.00000000E+00
                      -2.50000000E-01 -3.50000000E-01  5.00000000E-02
                       outvar_i_n : Printing only first  50 k-points.
         kptrlatt       10  -10   10    -10   10   10    -10  -10   10
          kptrlen      5.46954486E+01
P           mkmem          55
            natom           2
            nband           4
            ngfft          24      24      24
             nkpt         110
             nsym          48
           ntypat           1
              occ      2.000000  2.000000  2.000000  2.000000
          optcell           2
            rprim      5.0000000000E-01  5.0000000000E-01  0.0000000000E+00
                       0.0000000000E+00  5.0000000000E-01  5.0000000000E-01
                       5.0000000000E-01  0.0000000000E+00  5.0000000000E-01
           shiftk      5.00000000E-01  5.00000000E-01  5.00000000E-01
          spgroup         227
           symrel      1  0  0   0  1  0   0  0  1      -1  0  0   0 -1  0   0  0 -1
                       0 -1  1   0 -1  0   1 -1  0       0  1 -1   0  1  0  -1  1  0
                      -1  0  0  -1  0  1  -1  1  0       1  0  0   1  0 -1   1 -1  0
                       0  1 -1   1  0 -1   0  0 -1       0 -1  1  -1  0  1   0  0  1
                      -1  0  0  -1  1  0  -1  0  1       1  0  0   1 -1  0   1  0 -1
                       0 -1  1   1 -1  0   0 -1  0       0  1 -1  -1  1  0   0  1  0
                       1  0  0   0  0  1   0  1  0      -1  0  0   0  0 -1   0 -1  0
                       0  1 -1   0  0 -1   1  0 -1       0 -1  1   0  0  1  -1  0  1
                      -1  0  1  -1  1  0  -1  0  0       1  0 -1   1 -1  0   1  0  0
                       0 -1  0   1 -1  0   0 -1  1       0  1  0  -1  1  0   0  1 -1
                       1  0 -1   0  0 -1   0  1 -1      -1  0  1   0  0  1   0 -1  1
                       0  1  0   0  0  1   1  0  0       0 -1  0   0  0 -1  -1  0  0
                       1  0 -1   0  1 -1   0  0 -1      -1  0  1   0 -1  1   0  0  1
                       0 -1  0   0 -1  1   1 -1  0       0  1  0   0  1 -1  -1  1  0
                      -1  0  1  -1  0  0  -1  1  0       1  0 -1   1  0  0   1 -1  0
                       0  1  0   1  0  0   0  0  1       0 -1  0  -1  0  0   0  0 -1
                       0  0 -1   0  1 -1   1  0 -1       0  0  1   0 -1  1  -1  0  1
                       1 -1  0   0 -1  1   0 -1  0      -1  1  0   0  1 -1   0  1  0
                       0  0  1   1  0  0   0  1  0       0  0 -1  -1  0  0   0 -1  0
                      -1  1  0  -1  0  0  -1  0  1       1 -1  0   1  0  0   1  0 -1
                       0  0  1   0  1  0   1  0  0       0  0 -1   0 -1  0  -1  0  0
                       1 -1  0   0 -1  0   0 -1  1      -1  1  0   0  1  0   0  1 -1
                       0  0 -1   1  0 -1   0  1 -1       0  0  1  -1  0  1   0 -1  1
                      -1  1  0  -1  0  1  -1  0  0       1 -1  0   1  0 -1   1  0  0
            tnons      0.0000000  0.0000000  0.0000000     0.2500000  0.2500000  0.2500000
                       0.0000000  0.0000000  0.0000000     0.2500000  0.2500000  0.2500000
                       0.0000000  0.0000000  0.0000000     0.2500000  0.2500000  0.2500000
                       0.0000000  0.0000000  0.0000000     0.2500000  0.2500000  0.2500000
                       0.0000000  0.0000000  0.0000000     0.2500000  0.2500000  0.2500000
                       0.0000000  0.0000000  0.0000000     0.2500000  0.2500000  0.2500000
                       0.0000000  0.0000000  0.0000000     0.2500000  0.2500000  0.2500000
                       0.0000000  0.0000000  0.0000000     0.2500000  0.2500000  0.2500000
                       0.0000000  0.0000000  0.0000000     0.2500000  0.2500000  0.2500000
                       0.0000000  0.0000000  0.0000000     0.2500000  0.2500000  0.2500000
                       0.0000000  0.0000000  0.0000000     0.2500000  0.2500000  0.2500000
                       0.0000000  0.0000000  0.0000000     0.2500000  0.2500000  0.2500000
                       0.0000000  0.0000000  0.0000000     0.2500000  0.2500000  0.2500000
                       0.0000000  0.0000000  0.0000000     0.2500000  0.2500000  0.2500000
                       0.0000000  0.0000000  0.0000000     0.2500000  0.2500000  0.2500000
                       0.0000000  0.0000000  0.0000000     0.2500000  0.2500000  0.2500000
                       0.0000000  0.0000000  0.0000000     0.2500000  0.2500000  0.2500000
                       0.0000000  0.0000000  0.0000000     0.2500000  0.2500000  0.2500000
                       0.0000000  0.0000000  0.0000000     0.2500000  0.2500000  0.2500000
                       0.0000000  0.0000000  0.0000000     0.2500000  0.2500000  0.2500000
                       0.0000000  0.0000000  0.0000000     0.2500000  0.2500000  0.2500000
                       0.0000000  0.0000000  0.0000000     0.2500000  0.2500000  0.2500000
                       0.0000000  0.0000000  0.0000000     0.2500000  0.2500000  0.2500000
                       0.0000000  0.0000000  0.0000000     0.2500000  0.2500000  0.2500000
           tolvrs      1.00000000E-08
            typat      1  1
              wtk        0.00600    0.00600    0.00600    0.01200    0.00600    0.00600
                         0.01200    0.00600    0.01200    0.01200    0.00600    0.00600
                         0.01200    0.00600    0.01200    0.01200    0.00600    0.01200
                         0.01200    0.01200    0.00600    0.00600    0.01200    0.00600
                         0.01200    0.01200    0.00600    0.01200    0.01200    0.01200
                         0.00600    0.01200    0.01200    0.01200    0.01200    0.00600
                         0.00600    0.00600    0.01200    0.00600    0.01200    0.01200
                         0.01200    0.00600    0.01200    0.01200    0.01200    0.01200
                         0.00600    0.01200
                       outvars : Printing only first  50 k-points.
           xangst      0.0000000000E+00  0.0000000000E+00  0.0000000000E+00
                       7.2358962032E-01  7.2358962032E-01  7.2358962032E-01
            xcart      0.0000000000E+00  0.0000000000E+00  0.0000000000E+00
                       1.3673862150E+00  1.3673862150E+00  1.3673862150E+00
             xred      0.0000000000E+00  0.0000000000E+00  0.0000000000E+00
                       2.5000000000E-01  2.5000000000E-01  2.5000000000E-01
            znucl       14.00000
 
================================================================================
 
 chkinp: Checking input parameters for consistency.
 DATA TYPE INFORMATION: 
 REAL:      Data type name: REAL(DP) 
            Kind value:      8
            Precision:      15
            Smallest nonnegligible quantity relative to 1:  0.22204460E-15
            Smallest positive number:                       0.22250739-307
            Largest representable number:                   0.17976931+309
 INTEGER:   Data type name: INTEGER(default) 
            Kind value: 4
            Bit size:   32
            Largest representable number: 2147483647
 LOGICAL:   Data type name: LOGICAL 
            Kind value: 4
 CHARACTER: Data type name: CHARACTER             Kind value: 1

  ==== OpenMP parallelism is OFF ====
 
  ==== Using MPI-2 specifications ==== 
  MPI-IO support is ON
  xmpi_tag_ub ................   1073741824
  xmpi_bsize_ch ..............            1
  xmpi_bsize_int .............            4
  xmpi_bsize_sp ..............            4
  xmpi_bsize_dp ..............            8
  xmpi_bsize_spc .............            8
  xmpi_bsize_dpc .............           16
  xmpio_bsize_frm ............            4
  xmpi_address_kind ..........            8
  xmpi_offset_kind ...........            8
  MPI_WTICK ..................   1.000000000000000E-006
 
================================================================================
== DATASET  1 ==================================================================
-   nproc =    2
 
 
--- !COMMENT
src_file: m_xgScalapack.F90
src_line: 237
message: |
    xgScalapack in auto mode
...
 
 
 getdim_nloc : deduce lmnmax  =  18, lnmax  =   6,
                      lmnmaxso=  18, lnmaxso=   6.
 Exchange-correlation functional for the present dataset will be:
  GGA: Perdew-Burke-Ernzerhof functional - ixc=11
 Citation for XC functional:
  J.P.Perdew, K.Burke, M.Ernzerhof, PRL 77, 3865 (1996)
 
 Unit cell volume ucvol=  4.0906618E+01 bohr^3
 Angles (23,13,12)=  6.00000000E+01  6.00000000E+01  6.00000000E+01 degrees
 
 getcut: wavevector=  0.0000  0.0000  0.0000  ngfft=  24  24  24
         ecut(hartree)=     44.100   => boxcut(ratio)=   2.07582
- pspini: atom type   1  psp file is /CECI/home/ucl/naps/jovbever/.PsP/Si/Si.psp8
- pspatm: opening atomic psp file    /CECI/home/ucl/naps/jovbever/.PsP/Si/Si.psp8
- Si    ONCVPSP-3.2.3.1  r_core=   1.60303   1.72197   1.91712
- 14.00000   4.00000    170510                znucl, zion, pspdat
    8   11    2    4       600   0.00000      pspcod,pspxc,lmax,lloc,mmax,r2well
    5.99000000000000    4.00000000000000    0.00000000000000   rchrg,fchrg,qchrg
     nproj     2     2     2
     extension_switch     1
  valence charge integrates to:    3.95328304696650     
  pspatm : epsatm=    9.34321699
         --- l  ekb(1:nproj) -->
             0    5.168965    0.829883
             1    2.571282    0.578307
             2   -2.427311   -0.488097
 pspatm: atomic psp has been read  and splines computed
 
   1.49491472E+02                                ecore*ucvol(ha*bohr**3)
 ==== Info on pseudopotentials ====
  Norm-conserving pseudopotentials
  Number of pseudopotentials ..    1
  Number of types of atoms   ..    1
  Scalar calculation (no spin-orbit term)
  Nonlocal part applied using Legendre polynomials
  Max number of non-local projectors over l and type   2
  Highest angular momentum +1 .......   3
  Max number of (l,n)   components ..   6
  Max number of (l,m,n) components ..   6
 
 Pseudo-Core Charge Info: 
   Number of radial points for pseudo-core charge .. 2501
   XC core-correction treatment (optnlxccc) ........    1
   Radius for pseudo-core charge for each type ..... 
 
  - Atom type    1 has pseudo-core radius ..  5.9900
 
 Info on the Q-grid used for form factors in spline form: 
   Number of q-points for radial functions ffspl ..   3001
   Number of q-points for vlspl ...................   3001
   vloc is computed in Reciprocal Space
   model core charge treated in real-space
 
  XC functional for type 1 is 11
  Pseudo valence available: yes
 
 wfconv:     4 bands initialized randomly with npw=   560, for ikpt=     1
 wfconv:     4 bands initialized randomly with npw=   569, for ikpt=     2
 wfconv:     4 bands initialized randomly with npw=   564, for ikpt=     3
 wfconv:     4 bands initialized randomly with npw=   566, for ikpt=     4
 wfconv:     4 bands initialized randomly with npw=   576, for ikpt=     5
 wfconv:     4 bands initialized randomly with npw=   573, for ikpt=     6
 wfconv:     4 bands initialized randomly with npw=   572, for ikpt=     7
 wfconv:     4 bands initialized randomly with npw=   569, for ikpt=     8
 wfconv:     4 bands initialized randomly with npw=   568, for ikpt=     9
 wfconv:     4 bands initialized randomly with npw=   569, for ikpt=    10
 wfconv:     4 bands initialized randomly with npw=   580, for ikpt=    11
 wfconv:     4 bands initialized randomly with npw=   575, for ikpt=    12
 wfconv:     4 bands initialized randomly with npw=   579, for ikpt=    13
 wfconv:     4 bands initialized randomly with npw=   572, for ikpt=    14
 wfconv:     4 bands initialized randomly with npw=   573, for ikpt=    15
 wfconv:     4 bands initialized randomly with npw=   574, for ikpt=    16
 wfconv:     4 bands initialized randomly with npw=   572, for ikpt=    17
 wfconv:     4 bands initialized randomly with npw=   574, for ikpt=    18
 wfconv:     4 bands initialized randomly with npw=   574, for ikpt=    19
 wfconv:     4 bands initialized randomly with npw=   573, for ikpt=    20
 wfconv:     4 bands initialized randomly with npw=   574, for ikpt=    21
 wfconv:     4 bands initialized randomly with npw=   577, for ikpt=    22
 wfconv:     4 bands initialized randomly with npw=   575, for ikpt=    23
 wfconv:     4 bands initialized randomly with npw=   579, for ikpt=    24
 wfconv:     4 bands initialized randomly with npw=   576, for ikpt=    25
 wfconv:     4 bands initialized randomly with npw=   577, for ikpt=    26
 wfconv:     4 bands initialized randomly with npw=   570, for ikpt=    27
 wfconv:     4 bands initialized randomly with npw=   577, for ikpt=    28
 wfconv:     4 bands initialized randomly with npw=   573, for ikpt=    29
 wfconv:     4 bands initialized randomly with npw=   572, for ikpt=    30
 wfconv:     4 bands initialized randomly with npw=   570, for ikpt=    31
 wfconv:     4 bands initialized randomly with npw=   573, for ikpt=    32
 wfconv:     4 bands initialized randomly with npw=   573, for ikpt=    33
 wfconv:     4 bands initialized randomly with npw=   573, for ikpt=    34
 wfconv:     4 bands initialized randomly with npw=   570, for ikpt=    35
 wfconv:     4 bands initialized randomly with npw=   576, for ikpt=    36
 wfconv:     4 bands initialized randomly with npw=   575, for ikpt=    37
 wfconv:     4 bands initialized randomly with npw=   574, for ikpt=    38
 wfconv:     4 bands initialized randomly with npw=   573, for ikpt=    39
 wfconv:     4 bands initialized randomly with npw=   573, for ikpt=    40
 wfconv:     4 bands initialized randomly with npw=   572, for ikpt=    41
 wfconv:     4 bands initialized randomly with npw=   575, for ikpt=    42
 wfconv:     4 bands initialized randomly with npw=   570, for ikpt=    43
 wfconv:     4 bands initialized randomly with npw=   575, for ikpt=    44
 wfconv:     4 bands initialized randomly with npw=   571, for ikpt=    45
 wfconv:     4 bands initialized randomly with npw=   571, for ikpt=    46
 wfconv:     4 bands initialized randomly with npw=   572, for ikpt=    47
 wfconv:     4 bands initialized randomly with npw=   570, for ikpt=    48
 wfconv:     4 bands initialized randomly with npw=   574, for ikpt=    49
 wfconv:     4 bands initialized randomly with npw=   572, for ikpt=    50
_setup2: Arith. and geom. avg. npw (full set) are     572.200     572.189
 initro: for itypat=  1, take pseudo charge density from pp file
 
================================================================================
 
=== [ionmov= 2] Broyden-Fletcher-Goldfard-Shanno method (forces)            
================================================================================
 
--- Iteration: (1/1) Internal Cycle: (1/1)
--------------------------------------------------------------------------------
 
 Cartesian coordinates (xcart) [bohr]
  0.00000000000000E+00  0.00000000000000E+00  0.00000000000000E+00
  1.36738621500000E+00  1.36738621500000E+00  1.36738621500000E+00
 Reduced coordinates (xred)
  0.00000000000000E+00  0.00000000000000E+00  0.00000000000000E+00
  2.50000000000000E-01  2.50000000000000E-01  2.50000000000000E-01
 Scale of Primitive Cell (acell) [bohr]
  5.46954486000000E+00  5.46954486000000E+00  5.46954486000000E+00
 Real space primitive translations (rprimd) [bohr]
  2.73477243000000E+00  2.73477243000000E+00  0.00000000000000E+00
  0.00000000000000E+00  2.73477243000000E+00  2.73477243000000E+00
  2.73477243000000E+00  0.00000000000000E+00  2.73477243000000E+00
 Unitary Cell Volume (ucvol) [Bohr^3]=  4.09066179509997E+01
 Angles (23,13,12)= [degrees]
  6.00000000000000E+01  6.00000000000000E+01  6.00000000000000E+01
 Lengths [Bohr]
  3.86755226051003E+00  3.86755226051003E+00  3.86755226051003E+00
 
---SELF-CONSISTENT-FIELD CONVERGENCE--------------------------------------------
 
 getcut: wavevector=  0.0000  0.0000  0.0000  ngfft=  24  24  24
         ecut(hartree)=     40.000   => boxcut(ratio)=   2.17962
 
 ITER STEP NUMBER     1
 vtorho: nnsclo_now=2, note that nnsclo,dbl_nnsclo,istep=0 0 1
 
--- !WARNING
src_file: m_vtorho.F90
src_line: 1699
message: |
    For k-point number 1,
    The minimal occupation factor is  2.000.
    An adequate monitoring of convergence requires it to be  at most 0.01_dp.
    Action: increase slightly the number of bands.
...
 
 Total charge density [el/Bohr^3]
      Maximum=    2.5980E-01  at reduced coord.    0.2500    0.7500    0.7500
      Minimum=    3.3175E-03  at reduced coord.    0.0000    0.0000    0.0000
   Integrated=    8.0000E+00
 ETOT  1  -4.2240448169788    -4.224E+00 2.277E-01 2.659E+01
 scprqt: <Vxc>= -6.7001744E-01 hartree
 
 Simple mixing update:
  residual square of the potential:    18.1853868180329
 scfcv_core: previous iteration took  1.53 [s]
 
 ITER STEP NUMBER     2
 vtorho: nnsclo_now=2, note that nnsclo,dbl_nnsclo,istep=0 0 2
 
--- !WARNING
src_file: m_vtorho.F90
src_line: 1699
message: |
    For k-point number 1,
    The minimal occupation factor is  2.000.
    An adequate monitoring of convergence requires it to be  at most 0.01_dp.
    Action: increase slightly the number of bands.
...
 
 Total charge density [el/Bohr^3]
      Maximum=    2.6064E-01  at reduced coord.    0.2500    0.7500    0.7500
      Minimum=    3.5358E-03  at reduced coord.    0.0000    0.0000    0.0000
   Integrated=    8.0000E+00
 ETOT  2  -4.2517525407967    -2.771E-02 3.172E-03 9.396E-03
 scprqt: <Vxc>= -6.6984931E-01 hartree
 
 Pulay update with  1 previous iterations:
 mixing of old trial potential: alpha(m:m-4)=   1.01     -0.144E-01
 scfcv_core: previous iteration took  1.49 [s]
 
 ITER STEP NUMBER     3
 vtorho: nnsclo_now=1, note that nnsclo,dbl_nnsclo,istep=0 0 3
 
--- !WARNING
src_file: m_vtorho.F90
src_line: 1699
message: |
    For k-point number 1,
    The minimal occupation factor is  2.000.
    An adequate monitoring of convergence requires it to be  at most 0.01_dp.
    Action: increase slightly the number of bands.
...
 
 Total charge density [el/Bohr^3]
      Maximum=    2.6060E-01  at reduced coord.    0.2500    0.7500    0.7500
      Minimum=    3.5465E-03  at reduced coord.    0.0000    0.0000    0.0000
   Integrated=    8.0000E+00
 ETOT  3  -4.2517811481726    -2.861E-05 1.095E-04 2.096E-05
 scprqt: <Vxc>= -6.6984911E-01 hartree
 
 Pulay update with  2 previous iterations:
 mixing of old trial potential: alpha(m:m-4)=   1.07     -0.669E-01  0.121E-02
 scfcv_core: previous iteration took  0.76 [s]
 
 ITER STEP NUMBER     4
 vtorho: nnsclo_now=1, note that nnsclo,dbl_nnsclo,istep=0 0 4
 
--- !WARNING
src_file: m_vtorho.F90
src_line: 1699
message: |
    For k-point number 1,
    The minimal occupation factor is  2.000.
    An adequate monitoring of convergence requires it to be  at most 0.01_dp.
    Action: increase slightly the number of bands.
...
 
 Total charge density [el/Bohr^3]
      Maximum=    2.6060E-01  at reduced coord.    0.2500    0.7500    0.7500
      Minimum=    3.5465E-03  at reduced coord.    0.0000    0.0000    0.0000
   Integrated=    8.0000E+00
 ETOT  4  -4.2517828585356    -1.710E-06 5.534E-06 5.767E-07
 scprqt: <Vxc>= -6.6984938E-01 hartree
 
 Pulay update with  3 previous iterations:
 mixing of old trial potential: alpha(m:m-4)=   1.03     -0.285E-01  0.363E-02 -0.206E-03
 scfcv_core: previous iteration took  0.79 [s]
 
 ITER STEP NUMBER     5
 vtorho: nnsclo_now=1, note that nnsclo,dbl_nnsclo,istep=0 0 5
 
--- !WARNING
src_file: m_vtorho.F90
src_line: 1699
message: |
    For k-point number 1,
    The minimal occupation factor is  2.000.
    An adequate monitoring of convergence requires it to be  at most 0.01_dp.
    Action: increase slightly the number of bands.
...
 
 Total charge density [el/Bohr^3]
      Maximum=    2.6060E-01  at reduced coord.    0.2500    0.7500    0.7500
      Minimum=    3.5466E-03  at reduced coord.    0.0000    0.0000    0.0000
   Integrated=    8.0000E+00
 ETOT  5  -4.2517829941714    -1.356E-07 1.158E-06 8.197E-08
 scprqt: <Vxc>= -6.6984932E-01 hartree
 
 Pulay update with  4 previous iterations:
 mixing of old trial potential: alpha(m:m-4)=  0.969      0.442E-01 -0.129E-01  0.121E-03  0.408E-04
 scfcv_core: previous iteration took  0.79 [s]
 
 ITER STEP NUMBER     6
 vtorho: nnsclo_now=1, note that nnsclo,dbl_nnsclo,istep=0 0 6
 Total charge density [el/Bohr^3]
      Maximum=    2.6060E-01  at reduced coord.    0.2500    0.7500    0.7500
      Minimum=    3.5466E-03  at reduced coord.    0.0000    0.0000    0.0000
   Integrated=    8.0000E+00
 ETOT  6  -4.2517830064141    -1.224E-08 1.551E-07 6.371E-11
 scprqt: <Vxc>= -6.6984933E-01 hartree
 
 At SCF step    6       vres2   =  6.37E-11 < tolvrs=  1.00E-08 =>converged.
 
 Cartesian components of stress tensor (hartree/bohr^3)
  sigma(1 1)= -1.45359644E-01  sigma(3 2)=  0.00000000E+00
  sigma(2 2)= -1.45359644E-01  sigma(3 1)=  0.00000000E+00
  sigma(3 3)= -1.45359644E-01  sigma(2 1)=  0.00000000E+00
 
 
   fftdatar_write: About to write data to: opto_TIM1_DEN with iomode: IO_MODE_FORTRAN
 IO operation completed. cpu:  0.00 [s] , wall:  0.00 [s]
- Creating HDf5 file with MPI-IO support: opto_GSR.nc
 Write iteration in HIST netCDF file
 
---OUTPUT-----------------------------------------------------------------------
 
 Cartesian coordinates (xcart) [bohr]
  0.00000000000000E+00  0.00000000000000E+00  0.00000000000000E+00
  1.36738621500000E+00  1.36738621500000E+00  1.36738621500000E+00
 Reduced coordinates (xred)
  0.00000000000000E+00  0.00000000000000E+00  0.00000000000000E+00
  2.50000000000000E-01  2.50000000000000E-01  2.50000000000000E-01
 Cartesian forces (fcart) [Ha/bohr]; max,rms= 0.00000E+00 0.00000E+00 (free atoms)
  0.00000000000000E+00  0.00000000000000E+00  0.00000000000000E+00
  0.00000000000000E+00  0.00000000000000E+00  0.00000000000000E+00
 Reduced forces (fred)
  0.00000000000000E+00  0.00000000000000E+00  0.00000000000000E+00
  0.00000000000000E+00  0.00000000000000E+00  0.00000000000000E+00
 Scale of Primitive Cell (acell) [bohr]
  5.46954486000000E+00  5.46954486000000E+00  5.46954486000000E+00
 Real space primitive translations (rprimd) [bohr]
  2.73477243000000E+00  2.73477243000000E+00  0.00000000000000E+00
  0.00000000000000E+00  2.73477243000000E+00  2.73477243000000E+00
  2.73477243000000E+00  0.00000000000000E+00  2.73477243000000E+00
 Unitary Cell Volume (ucvol) [Bohr^3]=  4.09066179509997E+01
 Angles (23,13,12)= [degrees]
  6.00000000000000E+01  6.00000000000000E+01  6.00000000000000E+01
 Lengths [Bohr]
  3.86755226051003E+00  3.86755226051003E+00  3.86755226051003E+00
 Stress tensor in cartesian coordinates (strten) [Ha/bohr^3]
 -1.45359644487715E-01  0.00000000000000E+00  0.00000000000000E+00
  0.00000000000000E+00 -1.45359644487715E-01  0.00000000000000E+00
  0.00000000000000E+00  0.00000000000000E+00 -1.45359644487715E-01
 Total energy (etotal) [Ha]= -4.25178300641409E+00
 
 fconv : WARNING -
  ntime=    1 was not enough Broyd/MD steps to converge gradients: 
  max grad (force/stress) = 1.4536E+01 > tolmxf= 5.0000E-05 ha/bohr (free atoms)
 

--- !RelaxConvergenceWarning
message: | 
    
     fconv : WARNING -
      ntime=    1 was not enough Broyd/MD steps to converge gradients: 
      max grad (force/stress) = 1.4536E+01 > tolmxf= 5.0000E-05 ha/bohr (free atoms)

...
================================================================================
 
 ----iterations are completed or convergence reached----
 
 
 === Gap info ===
Not enough states to calculate the band gap.
 Mean square residual over all n,k,spin=   88.752E-11; max=  15.506E-08
  -0.0500 -0.1000  0.0000    1  3.13049E-08 kpt; spin; max resid(k); each band:
  1.24E-14 1.94E-09 4.25E-09 3.13E-08
  -0.0500 -0.2000  0.0000    1  2.29287E-09 kpt; spin; max resid(k); each band:
  4.86E-14 1.72E-13 1.35E-09 2.29E-09
  -0.1000 -0.1500  0.0000    1  3.79015E-08 kpt; spin; max resid(k); each band:
  1.79E-14 7.54E-11 6.47E-09 3.79E-08
  -0.0500 -0.1500  0.0500    1  2.29909E-09 kpt; spin; max resid(k); each band:
  4.62E-14 2.64E-12 6.61E-11 2.30E-09
  -0.0500 -0.3000  0.0000    1  2.10600E-11 kpt; spin; max resid(k); each band:
  7.31E-14 1.04E-13 7.77E-12 2.11E-11
  -0.1000 -0.2500  0.0000    1  2.52579E-10 kpt; spin; max resid(k); each band:
  6.76E-14 1.84E-13 2.53E-10 1.82E-10
  -0.0500 -0.2500  0.0500    1  2.70321E-11 kpt; spin; max resid(k); each band:
  8.12E-14 9.77E-14 4.52E-12 2.70E-11
  -0.1500 -0.2000  0.0000    1  6.10682E-09 kpt; spin; max resid(k); each band:
  2.42E-14 8.06E-12 4.92E-10 6.11E-09
  -0.1000 -0.2000  0.0500    1  8.53607E-09 kpt; spin; max resid(k); each band:
  6.03E-14 3.82E-13 2.44E-11 8.54E-09
  -0.0500 -0.2000  0.1000    1  4.86244E-11 kpt; spin; max resid(k); each band:
  8.95E-14 1.55E-13 1.59E-12 4.86E-11
  -0.0500 -0.4000  0.0000    1  2.54465E-12 kpt; spin; max resid(k); each band:
  7.39E-14 9.46E-14 1.55E-12 2.54E-12
  -0.1000 -0.3500  0.0000    1  3.76670E-12 kpt; spin; max resid(k); each band:
  8.76E-14 1.29E-13 3.77E-12 1.16E-13
  -0.0500 -0.3500  0.0500    1  1.23382E-12 kpt; spin; max resid(k); each band:
  8.97E-14 1.19E-13 1.09E-12 1.23E-12
  -0.1500 -0.3000  0.0000    1  1.33074E-10 kpt; spin; max resid(k); each band:
  7.98E-14 1.28E-13 2.99E-11 1.33E-10
  -0.1000 -0.3000  0.0500    1  2.17859E-11 kpt; spin; max resid(k); each band:
  9.47E-14 1.25E-13 1.73E-12 2.18E-11
  -0.0500 -0.3000  0.1000    1  7.10929E-12 kpt; spin; max resid(k); each band:
  1.09E-13 1.22E-13 1.29E-13 7.11E-12
  -0.2000 -0.2500  0.0000    1  1.23468E-09 kpt; spin; max resid(k); each band:
  3.05E-14 7.81E-13 4.41E-10 1.23E-09
  -0.1500 -0.2500  0.0500    1  2.54063E-11 kpt; spin; max resid(k); each band:
  7.31E-14 1.32E-13 2.54E-11 2.18E-11
  -0.1000 -0.2500  0.1000    1  4.40987E-12 kpt; spin; max resid(k); each band:
  1.03E-13 7.54E-14 1.50E-13 4.41E-12
  -0.0500 -0.2500  0.1500    1  2.67089E-11 kpt; spin; max resid(k); each band:
  1.20E-13 7.12E-14 1.98E-13 2.67E-11
  -0.0500  0.5000  0.0000    1  2.44118E-13 kpt; spin; max resid(k); each band:
  4.51E-14 3.35E-14 2.01E-13 2.44E-13
  -0.1000 -0.4500  0.0000    1  6.96282E-12 kpt; spin; max resid(k); each band:
  6.47E-14 1.24E-13 5.11E-13 6.96E-12
  -0.0500 -0.4500  0.0500    1  1.11948E-12 kpt; spin; max resid(k); each band:
  4.04E-14 9.16E-14 1.22E-13 1.12E-12
  -0.1500 -0.4000  0.0000    1  6.70389E-12 kpt; spin; max resid(k); each band:
  8.97E-14 1.57E-13 5.50E-13 6.70E-12
  -0.1000 -0.4000  0.0500    1  2.66976E-12 kpt; spin; max resid(k); each band:
  8.75E-14 1.51E-13 2.92E-13 2.67E-12
  -0.0500 -0.4000  0.1000    1  1.41045E-12 kpt; spin; max resid(k); each band:
  7.88E-14 1.40E-13 2.24E-13 1.41E-12
  -0.2000 -0.3500  0.0000    1  1.06417E-10 kpt; spin; max resid(k); each band:
  8.54E-14 9.93E-14 1.82E-12 1.06E-10
  -0.1500 -0.3500  0.0500    1  1.05108E-12 kpt; spin; max resid(k); each band:
  9.90E-14 1.38E-13 6.04E-13 1.05E-12
  -0.1000 -0.3500  0.1000    1  7.98352E-12 kpt; spin; max resid(k); each band:
  1.10E-13 1.50E-13 3.46E-13 7.98E-12
  -0.0500 -0.3500  0.1500    1  1.01822E-12 kpt; spin; max resid(k); each band:
  1.08E-13 1.42E-13 1.59E-13 1.02E-12
  -0.2500 -0.3000  0.0000    1  2.15953E-09 kpt; spin; max resid(k); each band:
  3.53E-14 7.12E-14 7.05E-10 2.16E-09
  -0.2000 -0.3000  0.0500    1  4.63843E-10 kpt; spin; max resid(k); each band:
  8.18E-14 3.68E-14 1.10E-11 4.64E-10
  -0.1500 -0.3000  0.1000    1  8.65516E-12 kpt; spin; max resid(k); each band:
  1.10E-13 6.74E-14 2.10E-13 8.66E-12
  -0.1000 -0.3000  0.1500    1  2.19417E-12 kpt; spin; max resid(k); each band:
  1.23E-13 7.55E-14 2.15E-13 2.19E-12
  -0.0500 -0.3000  0.2000    1  9.28957E-12 kpt; spin; max resid(k); each band:
  1.23E-13 6.67E-14 1.48E-13 9.29E-12
  -0.0500  0.4000  0.0000    1  6.70213E-13 kpt; spin; max resid(k); each band:
  6.39E-14 7.96E-14 1.64E-13 6.70E-13
  -0.1000  0.4500  0.0000    1  1.20187E-12 kpt; spin; max resid(k); each band:
  9.87E-15 8.38E-14 1.63E-13 1.20E-12
  -0.1500  0.5000  0.0000    1  5.65605E-12 kpt; spin; max resid(k); each band:
  3.48E-14 1.51E-13 2.80E-13 5.66E-12
  -0.1000  0.5000  0.0500    1  2.29104E-13 kpt; spin; max resid(k); each band:
  9.22E-15 1.22E-13 1.45E-13 2.29E-13
  -0.2000 -0.4500  0.0000    1  1.54665E-11 kpt; spin; max resid(k); each band:
  7.77E-14 1.61E-13 2.39E-13 1.55E-11
  -0.1500 -0.4500  0.0500    1  1.28045E-12 kpt; spin; max resid(k); each band:
  6.85E-14 1.71E-13 1.79E-13 1.28E-12
  -0.1000 -0.4500  0.1000    1  1.11093E-12 kpt; spin; max resid(k); each band:
  4.78E-14 1.64E-13 2.06E-13 1.11E-12
  -0.0500 -0.4500  0.1500    1  1.15016E-12 kpt; spin; max resid(k); each band:
  1.68E-14 1.56E-13 1.62E-13 1.15E-12
  -0.2500 -0.4000  0.0000    1  4.55383E-10 kpt; spin; max resid(k); each band:
  8.29E-14 5.75E-14 1.58E-12 4.55E-10
  -0.2000 -0.4000  0.0500    1  1.11055E-12 kpt; spin; max resid(k); each band:
  9.43E-14 1.12E-13 2.30E-13 1.11E-12
  -0.1500 -0.4000  0.1000    1  2.01552E-12 kpt; spin; max resid(k); each band:
  9.92E-14 1.49E-13 1.78E-13 2.02E-12
  -0.1000 -0.4000  0.1500    1  7.69133E-13 kpt; spin; max resid(k); each band:
  8.63E-14 1.59E-13 1.79E-13 7.69E-13
  -0.0500 -0.4000  0.2000    1  2.02669E-12 kpt; spin; max resid(k); each band:
  5.55E-14 1.57E-13 1.75E-13 2.03E-12
  -0.3000 -0.3500  0.0000    1  1.63239E-09 kpt; spin; max resid(k); each band:
  3.91E-14 1.67E-14 2.89E-10 1.63E-09
  -0.2500 -0.3500  0.0500    1  4.18384E-12 kpt; spin; max resid(k); each band:
  8.49E-14 1.73E-14 4.18E-12 3.67E-12
 outwf : prtvol=0 or 1, do not print more k-points.
 
 
   outwf: writing wavefunctions to: opto_WFK with iomode: IO_MODE_FORTRAN_MASTER
 WFK output completed. cpu:  0.01 [s] , wall:  0.02 [s]
 prteigrs : about to open file opto_EIG
 Fermi (or HOMO) energy (hartree) =   1.47750   Average Vxc (hartree)=  -0.66985
 Eigenvalues (hartree) for nkpt= 110  k points:
 kpt#   1, nband=  4, wtk=  0.00600, kpt= -0.0500 -0.1000  0.0000 (reduced coord)
   0.19538    1.38732    1.42836    1.44708
 kpt#   2, nband=  4, wtk=  0.00600, kpt= -0.0500 -0.2000  0.0000 (reduced coord)
   0.23979    1.19987    1.36858    1.38113
 kpt#   3, nband=  4, wtk=  0.00600, kpt= -0.1000 -0.1500  0.0000 (reduced coord)
   0.21769    1.31743    1.37776    1.38478
 kpt#   4, nband=  4, wtk=  0.01200, kpt= -0.0500 -0.1500  0.0500 (reduced coord)
   0.22877    1.26065    1.33883    1.40408
 kpt#   5, nband=  4, wtk=  0.00600, kpt= -0.0500 -0.3000  0.0000 (reduced coord)
   0.31417    1.00573    1.31920    1.31998
 kpt#   6, nband=  4, wtk=  0.00600, kpt= -0.1000 -0.2500  0.0000 (reduced coord)
   0.27205    1.13293    1.31886    1.32897
 kpt#   7, nband=  4, wtk=  0.01200, kpt= -0.0500 -0.2500  0.0500 (reduced coord)
   0.29329    1.07042    1.28452    1.34303
 kpt#   8, nband=  4, wtk=  0.00600, kpt= -0.1500 -0.2000  0.0000 (reduced coord)
   0.25040    1.23169    1.32683    1.33351
 kpt#   9, nband=  4, wtk=  0.01200, kpt= -0.1000 -0.2000  0.0500 (reduced coord)
   0.26126    1.18751    1.28759    1.34876
 kpt#  10, nband=  4, wtk=  0.01200, kpt= -0.0500 -0.2000  0.1000 (reduced coord)
   0.28266    1.12993    1.23473    1.35572
 kpt#  11, nband=  4, wtk=  0.00600, kpt= -0.0500 -0.4000  0.0000 (reduced coord)
   0.41066    0.83019    1.27843    1.28714
 kpt#  12, nband=  4, wtk=  0.00600, kpt= -0.1000 -0.3500  0.0000 (reduced coord)
   0.35431    0.94692    1.26018    1.29195
 kpt#  13, nband=  4, wtk=  0.01200, kpt= -0.0500 -0.3500  0.0500 (reduced coord)
   0.38332    0.88824    1.24642    1.29712
 kpt#  14, nband=  4, wtk=  0.00600, kpt= -0.1500 -0.3000  0.0000 (reduced coord)
   0.31367    1.06411    1.24990    1.29515
 kpt#  15, nband=  4, wtk=  0.01200, kpt= -0.1000 -0.3000  0.0500 (reduced coord)
   0.33421    1.00807    1.23001    1.29993
 kpt#  16, nband=  4, wtk=  0.01200, kpt= -0.0500 -0.3000  0.1000 (reduced coord)
   0.36408    0.95086    1.19092    1.30470
 kpt#  17, nband=  4, wtk=  0.00600, kpt= -0.2000 -0.2500  0.0000 (reduced coord)
   0.29267    1.13521    1.28166    1.29668
 kpt#  18, nband=  4, wtk=  0.01200, kpt= -0.1500 -0.2500  0.0500 (reduced coord)
   0.30321    1.10660    1.24064    1.29947
 kpt#  19, nband=  4, wtk=  0.01200, kpt= -0.1000 -0.2500  0.1000 (reduced coord)
   0.32395    1.06051    1.18753    1.30520
 kpt#  20, nband=  4, wtk=  0.01200, kpt= -0.0500 -0.2500  0.1500 (reduced coord)
   0.35419    1.00721    1.13536    1.30824
 kpt#  21, nband=  4, wtk=  0.00600, kpt= -0.0500  0.5000  0.0000 (reduced coord)
   0.49164    0.71695    1.25935    1.27594
 kpt#  22, nband=  4, wtk=  0.00600, kpt= -0.1000 -0.4500  0.0000 (reduced coord)
   0.45245    0.78663    1.22230    1.27180
 kpt#  23, nband=  4, wtk=  0.01200, kpt= -0.0500 -0.4500  0.0500 (reduced coord)
   0.47852    0.74540    1.22676    1.27353
 kpt#  24, nband=  4, wtk=  0.00600, kpt= -0.1500 -0.4000  0.0000 (reduced coord)
   0.40193    0.89305    1.18947    1.26919
 kpt#  25, nband=  4, wtk=  0.01200, kpt= -0.1000 -0.4000  0.0500 (reduced coord)
   0.42868    0.83950    1.19064    1.26875
 kpt#  26, nband=  4, wtk=  0.01200, kpt= -0.0500 -0.4000  0.1000 (reduced coord)
   0.46103    0.79271    1.17046    1.27123
 kpt#  27, nband=  4, wtk=  0.00600, kpt= -0.2000 -0.3500  0.0000 (reduced coord)
   0.36354    0.99226    1.18788    1.26776
 kpt#  28, nband=  4, wtk=  0.01200, kpt= -0.1500 -0.3500  0.0500 (reduced coord)
   0.38308    0.94719    1.17061    1.26366
 kpt#  29, nband=  4, wtk=  0.01200, kpt= -0.1000 -0.3500  0.1000 (reduced coord)
   0.41124    0.89702    1.14189    1.26351
 kpt#  30, nband=  4, wtk=  0.01200, kpt= -0.0500 -0.3500  0.1500 (reduced coord)
   0.44646    0.84884    1.10531    1.26917
 kpt#  31, nband=  4, wtk=  0.00600, kpt= -0.2500 -0.3000  0.0000 (reduced coord)
   0.34342    1.03718    1.24642    1.26715
 kpt#  32, nband=  4, wtk=  0.01200, kpt= -0.2000 -0.3000  0.0500 (reduced coord)
   0.35354    1.02058    1.20072    1.26055
 kpt#  33, nband=  4, wtk=  0.01200, kpt= -0.1500 -0.3000  0.1000 (reduced coord)
   0.37338    0.98843    1.14710    1.25541
 kpt#  34, nband=  4, wtk=  0.01200, kpt= -0.1000 -0.3000  0.1500 (reduced coord)
   0.40211    0.94573    1.09547    1.25979
 kpt#  35, nband=  4, wtk=  0.01200, kpt= -0.0500 -0.3000  0.2000 (reduced coord)
   0.43846    0.89884    1.04996    1.26794
 kpt#  36, nband=  4, wtk=  0.00600, kpt= -0.0500  0.4000  0.0000 (reduced coord)
   0.44381    0.78102    1.26287    1.28724
 kpt#  37, nband=  4, wtk=  0.00600, kpt= -0.1000  0.4500  0.0000 (reduced coord)
   0.49958    0.72396    1.20656    1.27151
 kpt#  38, nband=  4, wtk=  0.00600, kpt= -0.1500  0.5000  0.0000 (reduced coord)
   0.49498    0.75650    1.15275    1.25947
 kpt#  39, nband=  4, wtk=  0.01200, kpt= -0.1000  0.5000  0.0500 (reduced coord)
   0.50754    0.73022    1.17054    1.25907
 kpt#  40, nband=  4, wtk=  0.00600, kpt= -0.2000 -0.4500  0.0000 (reduced coord)
   0.45527    0.84403    1.11962    1.25142
 kpt#  41, nband=  4, wtk=  0.01200, kpt= -0.1500 -0.4500  0.0500 (reduced coord)
   0.47812    0.79934    1.12567    1.24603
 kpt#  42, nband=  4, wtk=  0.01200, kpt= -0.1000 -0.4500  0.1000 (reduced coord)
   0.50308    0.76222    1.12180    1.24119
 kpt#  43, nband=  4, wtk=  0.01200, kpt= -0.0500 -0.4500  0.1500 (reduced coord)
   0.52329    0.74162    1.10396    1.24786
 kpt#  44, nband=  4, wtk=  0.00600, kpt= -0.2500 -0.4000  0.0000 (reduced coord)
   0.42035    0.91770    1.13816    1.24666
 kpt#  45, nband=  4, wtk=  0.01200, kpt= -0.2000 -0.4000  0.0500 (reduced coord)
   0.43844    0.88681    1.11451    1.23600
 kpt#  46, nband=  4, wtk=  0.01200, kpt= -0.1500 -0.4000  0.1000 (reduced coord)
   0.46400    0.84742    1.09333    1.22303
 kpt#  47, nband=  4, wtk=  0.01200, kpt= -0.1000 -0.4000  0.1500 (reduced coord)
   0.49475    0.80771    1.06659    1.22637
 kpt#  48, nband=  4, wtk=  0.01200, kpt= -0.0500 -0.4000  0.2000 (reduced coord)
   0.52680    0.77470    1.03820    1.24017
 kpt#  49, nband=  4, wtk=  0.00600, kpt= -0.3000 -0.3500  0.0000 (reduced coord)
   0.40148    0.94221    1.21926    1.24447
 kpt#  50, nband=  4, wtk=  0.01200, kpt= -0.2500 -0.3500  0.0500 (reduced coord)
   0.41102    0.93382    1.16911    1.23045
 prteigrs : prtvol=0 or 1, do not print more k-points.
 
 Total charge density [el/Bohr^3]
      Maximum=    2.6060E-01  at reduced coord.    0.2500    0.7500    0.7500
 Next maximum=    2.6060E-01  at reduced coord.    0.7500    0.2500    0.7500
      Minimum=    3.5466E-03  at reduced coord.    0.0000    0.0000    0.0000
 Next minimum=    3.5466E-03  at reduced coord.    0.2500    0.2500    0.2500
   Integrated=    8.0000E+00
 
 Cartesian components of stress tensor (hartree/bohr^3)
  sigma(1 1)= -1.45359644E-01  sigma(3 2)=  0.00000000E+00
  sigma(2 2)= -1.45359644E-01  sigma(3 1)=  0.00000000E+00
  sigma(3 3)= -1.45359644E-01  sigma(2 1)=  0.00000000E+00
 
-Cartesian components of stress tensor (GPa)         [Pressure=  4.2766E+03 GPa]
- sigma(1 1)= -4.27662767E+03  sigma(3 2)=  0.00000000E+00
- sigma(2 2)= -4.27662767E+03  sigma(3 1)=  0.00000000E+00
- sigma(3 3)= -4.27662767E+03  sigma(2 1)=  0.00000000E+00
 
== END DATASET(S) ==============================================================
================================================================================
  
 -outvars: echo values of variables after computation  --------
 
 These variables are accessible in NetCDF format (opto_OUT.nc)

            acell      5.4695448600E+00  5.4695448600E+00  5.4695448600E+00 Bohr
              amu      2.80855000E+01
          dilatmx      1.05000000E+00
             ecut      4.00000000E+01 Hartree
           ecutsm      5.00000000E-01 Hartree
           etotal     -4.2517830064E+00
            fcart      0.0000000000E+00  0.0000000000E+00  0.0000000000E+00
                       0.0000000000E+00  0.0000000000E+00  0.0000000000E+00
-          fftalg         312
           ionmov           2
              ixc          11
              kpt     -5.00000000E-02 -1.00000000E-01  0.00000000E+00
                      -5.00000000E-02 -2.00000000E-01  0.00000000E+00
                      -1.00000000E-01 -1.50000000E-01  0.00000000E+00
                      -5.00000000E-02 -1.50000000E-01  5.00000000E-02
                      -5.00000000E-02 -3.00000000E-01  0.00000000E+00
                      -1.00000000E-01 -2.50000000E-01  0.00000000E+00
                      -5.00000000E-02 -2.50000000E-01  5.00000000E-02
                      -1.50000000E-01 -2.00000000E-01  0.00000000E+00
                      -1.00000000E-01 -2.00000000E-01  5.00000000E-02
                      -5.00000000E-02 -2.00000000E-01  1.00000000E-01
                      -5.00000000E-02 -4.00000000E-01  0.00000000E+00
                      -1.00000000E-01 -3.50000000E-01  0.00000000E+00
                      -5.00000000E-02 -3.50000000E-01  5.00000000E-02
                      -1.50000000E-01 -3.00000000E-01  0.00000000E+00
                      -1.00000000E-01 -3.00000000E-01  5.00000000E-02
                      -5.00000000E-02 -3.00000000E-01  1.00000000E-01
                      -2.00000000E-01 -2.50000000E-01  0.00000000E+00
                      -1.50000000E-01 -2.50000000E-01  5.00000000E-02
                      -1.00000000E-01 -2.50000000E-01  1.00000000E-01
                      -5.00000000E-02 -2.50000000E-01  1.50000000E-01
                      -5.00000000E-02  5.00000000E-01  0.00000000E+00
                      -1.00000000E-01 -4.50000000E-01  0.00000000E+00
                      -5.00000000E-02 -4.50000000E-01  5.00000000E-02
                      -1.50000000E-01 -4.00000000E-01  0.00000000E+00
                      -1.00000000E-01 -4.00000000E-01  5.00000000E-02
                      -5.00000000E-02 -4.00000000E-01  1.00000000E-01
                      -2.00000000E-01 -3.50000000E-01  0.00000000E+00
                      -1.50000000E-01 -3.50000000E-01  5.00000000E-02
                      -1.00000000E-01 -3.50000000E-01  1.00000000E-01
                      -5.00000000E-02 -3.50000000E-01  1.50000000E-01
                      -2.50000000E-01 -3.00000000E-01  0.00000000E+00
                      -2.00000000E-01 -3.00000000E-01  5.00000000E-02
                      -1.50000000E-01 -3.00000000E-01  1.00000000E-01
                      -1.00000000E-01 -3.00000000E-01  1.50000000E-01
                      -5.00000000E-02 -3.00000000E-01  2.00000000E-01
                      -5.00000000E-02  4.00000000E-01  0.00000000E+00
                      -1.00000000E-01  4.50000000E-01  0.00000000E+00
                      -1.50000000E-01  5.00000000E-01  0.00000000E+00
                      -1.00000000E-01  5.00000000E-01  5.00000000E-02
                      -2.00000000E-01 -4.50000000E-01  0.00000000E+00
                      -1.50000000E-01 -4.50000000E-01  5.00000000E-02
                      -1.00000000E-01 -4.50000000E-01  1.00000000E-01
                      -5.00000000E-02 -4.50000000E-01  1.50000000E-01
                      -2.50000000E-01 -4.00000000E-01  0.00000000E+00
                      -2.00000000E-01 -4.00000000E-01  5.00000000E-02
                      -1.50000000E-01 -4.00000000E-01  1.00000000E-01
                      -1.00000000E-01 -4.00000000E-01  1.50000000E-01
                      -5.00000000E-02 -4.00000000E-01  2.00000000E-01
                      -3.00000000E-01 -3.50000000E-01  0.00000000E+00
                      -2.50000000E-01 -3.50000000E-01  5.00000000E-02
                       outvar_i_n : Printing only first  50 k-points.
         kptrlatt       10  -10   10    -10   10   10    -10  -10   10
          kptrlen      5.46954486E+01
P           mkmem          55
            natom           2
            nband           4
            ngfft          24      24      24
             nkpt         110
             nsym          48
           ntypat           1
              occ      2.000000  2.000000  2.000000  2.000000
          optcell           2
            rprim      5.0000000000E-01  5.0000000000E-01  0.0000000000E+00
                       0.0000000000E+00  5.0000000000E-01  5.0000000000E-01
                       5.0000000000E-01  0.0000000000E+00  5.0000000000E-01
           shiftk      5.00000000E-01  5.00000000E-01  5.00000000E-01
          spgroup         227
           strten     -1.4535964449E-01 -1.4535964449E-01 -1.4535964449E-01
                       0.0000000000E+00  0.0000000000E+00  0.0000000000E+00
           symrel      1  0  0   0  1  0   0  0  1      -1  0  0   0 -1  0   0  0 -1
                       0 -1  1   0 -1  0   1 -1  0       0  1 -1   0  1  0  -1  1  0
                      -1  0  0  -1  0  1  -1  1  0       1  0  0   1  0 -1   1 -1  0
                       0  1 -1   1  0 -1   0  0 -1       0 -1  1  -1  0  1   0  0  1
                      -1  0  0  -1  1  0  -1  0  1       1  0  0   1 -1  0   1  0 -1
                       0 -1  1   1 -1  0   0 -1  0       0  1 -1  -1  1  0   0  1  0
                       1  0  0   0  0  1   0  1  0      -1  0  0   0  0 -1   0 -1  0
                       0  1 -1   0  0 -1   1  0 -1       0 -1  1   0  0  1  -1  0  1
                      -1  0  1  -1  1  0  -1  0  0       1  0 -1   1 -1  0   1  0  0
                       0 -1  0   1 -1  0   0 -1  1       0  1  0  -1  1  0   0  1 -1
                       1  0 -1   0  0 -1   0  1 -1      -1  0  1   0  0  1   0 -1  1
                       0  1  0   0  0  1   1  0  0       0 -1  0   0  0 -1  -1  0  0
                       1  0 -1   0  1 -1   0  0 -1      -1  0  1   0 -1  1   0  0  1
                       0 -1  0   0 -1  1   1 -1  0       0  1  0   0  1 -1  -1  1  0
                      -1  0  1  -1  0  0  -1  1  0       1  0 -1   1  0  0   1 -1  0
                       0  1  0   1  0  0   0  0  1       0 -1  0  -1  0  0   0  0 -1
                       0  0 -1   0  1 -1   1  0 -1       0  0  1   0 -1  1  -1  0  1
                       1 -1  0   0 -1  1   0 -1  0      -1  1  0   0  1 -1   0  1  0
                       0  0  1   1  0  0   0  1  0       0  0 -1  -1  0  0   0 -1  0
                      -1  1  0  -1  0  0  -1  0  1       1 -1  0   1  0  0   1  0 -1
                       0  0  1   0  1  0   1  0  0       0  0 -1   0 -1  0  -1  0  0
                       1 -1  0   0 -1  0   0 -1  1      -1  1  0   0  1  0   0  1 -1
                       0  0 -1   1  0 -1   0  1 -1       0  0  1  -1  0  1   0 -1  1
                      -1  1  0  -1  0  1  -1  0  0       1 -1  0   1  0 -1   1  0  0
            tnons      0.0000000  0.0000000  0.0000000     0.2500000  0.2500000  0.2500000
                       0.0000000  0.0000000  0.0000000     0.2500000  0.2500000  0.2500000
                       0.0000000  0.0000000  0.0000000     0.2500000  0.2500000  0.2500000
                       0.0000000  0.0000000  0.0000000     0.2500000  0.2500000  0.2500000
                       0.0000000  0.0000000  0.0000000     0.2500000  0.2500000  0.2500000
                       0.0000000  0.0000000  0.0000000     0.2500000  0.2500000  0.2500000
                       0.0000000  0.0000000  0.0000000     0.2500000  0.2500000  0.2500000
                       0.0000000  0.0000000  0.0000000     0.2500000  0.2500000  0.2500000
                       0.0000000  0.0000000  0.0000000     0.2500000  0.2500000  0.2500000
                       0.0000000  0.0000000  0.0000000     0.2500000  0.2500000  0.2500000
                       0.0000000  0.0000000  0.0000000     0.2500000  0.2500000  0.2500000
                       0.0000000  0.0000000  0.0000000     0.2500000  0.2500000  0.2500000
                       0.0000000  0.0000000  0.0000000     0.2500000  0.2500000  0.2500000
                       0.0000000  0.0000000  0.0000000     0.2500000  0.2500000  0.2500000
                       0.0000000  0.0000000  0.0000000     0.2500000  0.2500000  0.2500000
                       0.0000000  0.0000000  0.0000000     0.2500000  0.2500000  0.2500000
                       0.0000000  0.0000000  0.0000000     0.2500000  0.2500000  0.2500000
                       0.0000000  0.0000000  0.0000000     0.2500000  0.2500000  0.2500000
                       0.0000000  0.0000000  0.0000000     0.2500000  0.2500000  0.2500000
                       0.0000000  0.0000000  0.0000000     0.2500000  0.2500000  0.2500000
                       0.0000000  0.0000000  0.0000000     0.2500000  0.2500000  0.2500000
                       0.0000000  0.0000000  0.0000000     0.2500000  0.2500000  0.2500000
                       0.0000000  0.0000000  0.0000000     0.2500000  0.2500000  0.2500000
                       0.0000000  0.0000000  0.0000000     0.2500000  0.2500000  0.2500000
           tolvrs      1.00000000E-08
            typat      1  1
              wtk        0.00600    0.00600    0.00600    0.01200    0.00600    0.00600
                         0.01200    0.00600    0.01200    0.01200    0.00600    0.00600
                         0.01200    0.00600    0.01200    0.01200    0.00600    0.01200
                         0.01200    0.01200    0.00600    0.00600    0.01200    0.00600
                         0.01200    0.01200    0.00600    0.01200    0.01200    0.01200
                         0.00600    0.01200    0.01200    0.01200    0.01200    0.00600
                         0.00600    0.00600    0.01200    0.00600    0.01200    0.01200
                         0.01200    0.00600    0.01200    0.01200    0.01200    0.01200
                         0.00600    0.01200
                       outvars : Printing only first  50 k-points.
           xangst      0.0000000000E+00  0.0000000000E+00  0.0000000000E+00
                       7.2358962032E-01  7.2358962032E-01  7.2358962032E-01
            xcart      0.0000000000E+00  0.0000000000E+00  0.0000000000E+00
                       1.3673862150E+00  1.3673862150E+00  1.3673862150E+00
             xred      0.0000000000E+00  0.0000000000E+00  0.0000000000E+00
                       2.5000000000E-01  2.5000000000E-01  2.5000000000E-01
            znucl       14.00000
 
================================================================================
  

================================================================================

 Suggested references for the acknowledgment of ABINIT usage.

 The users of ABINIT have little formal obligations with respect to the ABINIT group
 (those specified in the GNU General Public License, http://www.gnu.org/copyleft/gpl.txt).
 However, it is common practice in the scientific literature,
 to acknowledge the efforts of people that have made the research possible.
 In this spirit, please find below suggested citations of work written by ABINIT developers,
 corresponding to implementations inside of ABINIT that you have used in the present run.
 Note also that it will be of great value to readers of publications presenting these results,
 to read papers enabling them to understand the theoretical formalism and details
 of the ABINIT implementation.
 For information on why they are suggested, see also https://docs.abinit.org/theory/acknowledgments.
-
- [1] Recent developments in the ABINIT software package.
- Computer Phys. Comm. 205, 106 (2016).
- X.Gonze, F.Jollet, F.Abreu Araujo, D.Adams, B.Amadon, T.Applencourt,
- C.Audouze, J.-M.Beuken, J.Bieder, A.Bokhanchuk, E.Bousquet, F.Bruneval
- D.Caliste, M.Cote, F.Dahm, F.Da Pieve, M.Delaveau, M.Di Gennaro,
- B.Dorado, C.Espejo, G.Geneste, L.Genovese, A.Gerossier, M.Giantomassi,
- Y.Gillet, D.R.Hamann, L.He, G.Jomard, J.Laflamme Janssen, S.Le Roux,
- A.Levitt, A.Lherbier, F.Liu, I.Lukacevic, A.Martin, C.Martins,
- M.J.T.Oliveira, S.Ponce, Y.Pouillon, T.Rangel, G.-M.Rignanese,
- A.H.Romero, B.Rousseau, O.Rubel, A.A.Shukri, M.Stankovski, M.Torrent,
- M.J.Van Setten, B.Van Troeye, M.J.Verstraete, D.Waroquier, J.Wiktor,
- B.Xu, A.Zhou, J.W.Zwanziger.
- Comment: the fourth generic paper describing the ABINIT project.
- Note that a version of this paper, that is not formatted for Computer Phys. Comm. 
- is available at https://www.abinit.org/about/ABINIT16.pdf .
- The licence allows the authors to put it on the Web.
- DOI and bibtex: see https://docs.abinit.org/theory/bibliography/#gonze2016
-
- [2] Optimized norm-conserving Vanderbilt pseudopotentials.
- D.R. Hamann, Phys. Rev. B 88, 085117 (2013).
- Comment: Some pseudopotential generated using the ONCVPSP code were used.
- DOI and bibtex: see https://docs.abinit.org/theory/bibliography/#hamann2013
-
- [3] ABINIT: First-principles approach of materials and nanosystem properties.
- Computer Phys. Comm. 180, 2582-2615 (2009).
- X. Gonze, B. Amadon, P.-M. Anglade, J.-M. Beuken, F. Bottin, P. Boulanger, F. Bruneval,
- D. Caliste, R. Caracas, M. Cote, T. Deutsch, L. Genovese, Ph. Ghosez, M. Giantomassi
- S. Goedecker, D.R. Hamann, P. Hermet, F. Jollet, G. Jomard, S. Leroux, M. Mancini, S. Mazevet,
- M.J.T. Oliveira, G. Onida, Y. Pouillon, T. Rangel, G.-M. Rignanese, D. Sangalli, R. Shaltaf,
- M. Torrent, M.J. Verstraete, G. Zerah, J.W. Zwanziger
- Comment: the third generic paper describing the ABINIT project.
- Note that a version of this paper, that is not formatted for Computer Phys. Comm. 
- is available at https://www.abinit.org/about/ABINIT_CPC_v10.pdf .
- The licence allows the authors to put it on the Web.
- DOI and bibtex: see https://docs.abinit.org/theory/bibliography/#gonze2009
-
- [4] A brief introduction to the ABINIT software package.
- Z. Kristallogr. 220, 558-562 (2005).
- X. Gonze, G.-M. Rignanese, M. Verstraete, J.-M. Beuken, Y. Pouillon, R. Caracas, F. Jollet,
- M. Torrent, G. Zerah, M. Mikami, Ph. Ghosez, M. Veithen, J.-Y. Raty, V. Olevano, F. Bruneval,
- L. Reining, R. Godby, G. Onida, D.R. Hamann, and D.C. Allan.
- Comment: the second generic paper describing the ABINIT project. Note that this paper
- should be cited especially if you are using the GW part of ABINIT, as several authors
- of this part are not in the list of authors of the first or third paper.
- The .pdf of the latter paper is available at https://www.abinit.org/about/zfk_0505-06_558-562.pdf.
- Note that it should not redistributed (Copyright by Oldenburg Wissenshaftverlag,
- the licence allows the authors to put it on the Web).
- DOI and bibtex: see https://docs.abinit.org/theory/bibliography/#gonze2005
-
- And optionally:
-
- [5] First-principles computation of material properties: the ABINIT software project. 
- X. Gonze, J.-M. Beuken, R. Caracas, F. Detraux, M. Fuchs, G.-M. Rignanese, L. Sindic,
- M. Verstraete, G. Zerah, F. Jollet, M. Torrent, A. Roy, M. Mikami, Ph. Ghosez, J.-Y. Raty, D.C. Allan.
- Computational Materials Science 25, 478-492 (2002). http://dx.doi.org/10.1016/S0927-0256(02)00325-7
- Comment: the original paper describing the ABINIT project.
- DOI and bibtex : see https://docs.abinit.org/theory/bibliography/#gonze2002
 Proc.   0 individual time (sec): cpu=          8.3  wall=          8.5
 
 Calculation completed.
.Delivered   1 WARNINGs and   0 COMMENTs to log file.

--- !FinalSummary
program: abinit
version: 8.11.13
start_datetime: Fri Jan 03 15:41:40 2020
end_datetime: Fri Jan 03 15:41:48 2020
overall_cpu_time:          16.8
overall_wall_time:          17.0
exit_requested_by_user: no 
timelimit: 0
pseudos: 
    Si  : 45c393525680abc7b25445b8ec62bf83
usepaw: 0
mpi_procs: 2
omp_threads: 1
num_warnings: 1
num_comments: 0
...
