 DIM-GROUP
 3  1
 PRIMVEC
 5.2917720859E+00   0.0000000000E+00   0.0000000000E+00
 0.0000000000E+00   5.2917720859E+00   0.0000000000E+00
 0.0000000000E+00   0.0000000000E+00   5.2917720859E+00
 PRIMCOORD
           2  1
        1   -4.0270385574E-01    0.0000000000E+00    0.0000000000E+00
        1    4.0270385574E-01    0.0000000000E+00    0.0000000000E+00
 ATOMS
        1   -4.0270385574E-01    0.0000000000E+00    0.0000000000E+00
        1    4.0270385574E-01    0.0000000000E+00    0.0000000000E+00
 BEGIN_BLOCK_DATAGRID3D
 datagrids
 DATAGRID_3D_DENSITY
          31          31          31
 0.0 0.0 0.0 
 5.2917720859E+00   0.0000000000E+00   0.0000000000E+00
 0.0000000000E+00   5.2917720859E+00   0.0000000000E+00
 0.0000000000E+00   0.0000000000E+00   5.2917720859E+00
         0.23385E+00           0.23147E+00           0.21296E+00           0.16396E+00           0.98234E-01           0.46292E-01  
         0.19559E-01           0.90915E-02           0.48654E-02           0.25302E-02           0.11788E-02           0.59327E-03  
         0.38896E-03           0.27524E-03           0.17577E-03           0.13523E-03           0.17577E-03           0.27524E-03  
         0.38896E-03           0.59327E-03           0.11788E-02           0.25302E-02           0.48654E-02           0.90915E-02  
         0.19559E-01           0.46292E-01           0.98234E-01           0.16396E+00           0.21296E+00           0.23147E+00  
         0.23385E+00           0.19904E+00           0.19706E+00           0.18148E+00           0.14017E+00           0.84706E-01  
         0.40701E-01           0.17770E-01           0.85274E-02           0.46100E-02           0.23810E-02           0.11028E-02  
         0.55687E-03           0.36580E-03           0.25703E-03           0.16251E-03           0.12440E-03           0.16251E-03  
         0.25703E-03           0.36580E-03           0.55687E-03           0.11028E-02           0.23810E-02           0.46100E-02  
         0.85274E-02           0.17770E-01           0.40701E-01           0.84706E-01           0.14017E+00           0.18148E+00  
         0.19706E+00           0.19904E+00           0.12636E+00           0.12505E+00           0.11528E+00           0.89841E-01  
         0.55836E-01           0.28546E-01           0.13721E-01           0.71586E-02           0.39583E-02           0.20139E-02  
         0.93049E-03           0.48098E-03           0.31868E-03           0.22000E-03           0.13700E-03           0.10457E-03  
         0.13700E-03           0.22000E-03           0.31868E-03           0.48098E-03           0.93049E-03           0.20139E-02  
         0.39583E-02           0.71586E-02           0.13721E-01           0.28546E-01           0.55836E-01           0.89841E-01  
         0.11528E+00           0.12505E+00           0.12636E+00           0.65957E-01           0.64985E-01           0.59588E-01  
         0.46989E-01           0.30717E-01           0.17452E-01           0.96390E-02           0.55381E-02           0.31122E-02  
         0.15697E-02           0.75066E-03           0.41372E-03           0.27747E-03           0.18736E-03           0.11831E-03  
         0.92757E-04           0.11831E-03           0.18736E-03           0.27747E-03           0.41372E-03           0.75066E-03  
         0.15697E-02           0.31122E-02           0.55381E-02           0.96390E-02           0.17452E-01           0.30717E-01  
         0.46989E-01           0.59588E-01           0.64985E-01           0.65957E-01           0.33121E-01           0.32257E-01  
         0.29031E-01           0.23084E-01           0.16099E-01           0.10340E-01           0.64842E-02           0.39521E-02  
         0.22138E-02           0.11355E-02           0.59564E-03           0.35961E-03           0.23911E-03           0.15710E-03  
         0.10580E-03           0.88853E-04           0.10580E-03           0.15710E-03           0.23911E-03           0.35961E-03  
         0.59564E-03           0.11355E-02           0.22138E-02           0.39521E-02           0.64842E-02           0.10340E-01  
         0.16099E-01           0.23084E-01           0.29031E-01           0.32257E-01           0.33121E-01           0.17763E-01  
         0.17048E-01           0.14962E-01           0.11936E-01           0.88092E-02           0.61950E-02           0.41440E-02  
         0.25356E-02           0.14048E-02           0.76667E-03           0.46129E-03           0.29835E-03           0.18667E-03  
         0.11796E-03           0.89375E-04           0.83205E-04           0.89375E-04           0.11796E-03           0.18667E-03  
         0.29835E-03           0.46129E-03           0.76667E-03           0.14048E-02           0.25356E-02           0.41440E-02  
         0.61950E-02           0.88092E-02           0.11936E-01           0.14962E-01           0.17048E-01           0.17763E-01  
         0.95722E-02           0.91231E-02           0.79324E-02           0.63996E-02           0.49142E-02           0.36074E-02  
         0.24393E-02           0.14678E-02           0.82899E-03           0.50783E-03           0.34937E-03           0.22670E-03  
         0.12554E-03           0.76173E-04           0.69168E-04           0.73059E-04           0.69168E-04           0.76173E-04  
         0.12554E-03           0.22670E-03           0.34937E-03           0.50783E-03           0.82899E-03           0.14678E-02  
         0.24393E-02           0.36074E-02           0.49142E-02           0.63996E-02           0.79324E-02           0.91231E-02  
         0.95722E-02           0.46514E-02           0.44669E-02           0.39702E-02           0.33096E-02           0.26283E-02  
         0.19707E-02           0.13428E-02           0.82485E-03           0.50452E-03           0.35167E-03           0.25903E-03  
         0.15808E-03           0.76235E-04           0.46443E-04           0.52867E-04           0.62764E-04           0.52867E-04  
         0.46443E-04           0.76235E-04           0.15808E-03           0.25903E-03           0.35167E-03           0.50452E-03  
         0.82485E-03           0.13428E-02           0.19707E-02           0.26283E-02           0.33096E-02           0.39702E-02  
         0.44669E-02           0.46514E-02           0.21204E-02           0.20788E-02           0.19357E-02           0.16828E-02  
         0.13662E-02           0.10402E-02           0.73549E-03           0.48825E-03           0.33034E-03           0.24441E-03  
         0.17642E-03           0.10044E-03           0.46074E-04           0.30935E-04           0.41440E-04           0.51914E-04  
         0.41440E-04           0.30935E-04           0.46074E-04           0.10044E-03           0.17642E-03           0.24441E-03  
         0.33034E-03           0.48825E-03           0.73549E-03           0.10402E-02           0.13662E-02           0.16828E-02  
         0.19357E-02           0.20788E-02           0.21204E-02           0.10891E-02           0.10897E-02           0.10519E-02  
         0.92439E-03           0.73665E-03           0.55789E-03           0.41455E-03           0.29955E-03           0.21138E-03  
         0.14923E-03           0.10039E-03           0.57515E-04           0.30169E-04           0.23327E-04           0.30359E-04  
         0.36582E-04           0.30359E-04           0.23327E-04           0.30169E-04           0.57515E-04           0.10039E-03  
         0.14923E-03           0.21138E-03           0.29955E-03           0.41455E-03           0.55789E-03           0.73665E-03  
         0.92439E-03           0.10519E-02           0.10897E-02           0.10891E-02           0.64970E-03           0.65618E-03  
         0.63787E-03           0.54676E-03           0.41484E-03           0.30765E-03           0.23832E-03           0.18100E-03  
         0.12376E-03           0.78072E-04           0.50090E-04           0.33708E-04           0.23658E-04           0.19266E-04  
         0.19387E-04           0.20279E-04           0.19387E-04           0.19266E-04           0.23658E-04           0.33708E-04  
         0.50090E-04           0.78072E-04           0.12376E-03           0.18100E-03           0.23832E-03           0.30765E-03  
         0.41484E-03           0.54676E-03           0.63787E-03           0.65618E-03           0.64970E-03           0.36228E-03  
         0.36916E-03           0.36307E-03           0.30993E-03           0.23282E-03           0.17614E-03           0.14424E-03  
         0.11350E-03           0.75236E-04           0.44748E-04           0.30593E-04           0.26296E-04           0.22882E-04  
         0.17223E-04           0.12192E-04           0.10350E-04           0.12192E-04           0.17223E-04           0.22882E-04  
         0.26296E-04           0.30593E-04           0.44748E-04           0.75236E-04           0.11350E-03           0.14424E-03  
         0.17614E-03           0.23282E-03           0.30993E-03           0.36307E-03           0.36916E-03           0.36228E-03  
         0.17245E-03           0.17860E-03           0.18257E-03           0.16415E-03           0.13235E-03           0.10900E-03  
         0.95533E-04           0.78267E-04           0.54278E-04           0.35422E-04           0.27420E-04           0.25158E-04  
         0.21395E-04           0.14727E-04           0.91917E-05           0.72787E-05           0.91917E-05           0.14727E-04  
         0.21395E-04           0.25158E-04           0.27420E-04           0.35422E-04           0.54278E-04           0.78267E-04  
         0.95533E-04           0.10900E-03           0.13235E-03           0.16415E-03           0.18257E-03           0.17860E-03  
         0.17245E-03           0.96513E-04           0.99732E-04           0.10293E-03           0.96792E-04           0.84014E-04  
         0.72972E-04           0.64023E-04           0.52585E-04           0.39680E-04           0.30229E-04           0.24614E-04  
         0.19390E-04           0.13563E-04           0.94313E-05           0.78847E-05           0.76700E-05           0.78847E-05  
         0.94313E-05           0.13563E-04           0.19390E-04           0.24614E-04           0.30229E-04           0.39680E-04  
         0.52585E-04           0.64023E-04           0.72972E-04           0.84014E-04           0.96792E-04           0.10293E-03  
         0.99732E-04           0.96513E-04           0.88457E-04           0.88007E-04           0.84508E-04           0.75753E-04  
         0.63988E-04           0.52288E-04           0.41194E-04           0.31520E-04           0.25296E-04           0.21947E-04  
         0.17413E-04           0.10241E-04           0.49611E-05           0.41132E-05           0.66415E-05           0.87213E-05  
         0.66415E-05           0.41132E-05           0.49611E-05           0.10241E-04           0.17413E-04           0.21947E-04  
         0.25296E-04           0.31520E-04           0.41194E-04           0.52288E-04           0.63988E-04           0.75753E-04  
         0.84508E-04           0.88007E-04           0.88457E-04           0.94709E-04           0.92226E-04           0.84485E-04  
         0.72367E-04           0.58615E-04           0.45082E-04           0.32640E-04           0.23466E-04           0.19233E-04  
         0.17712E-04           0.13628E-04           0.64941E-05           0.22445E-05           0.23049E-05           0.60105E-05  
         0.91183E-05           0.60105E-05           0.23049E-05           0.22445E-05           0.64941E-05           0.13628E-04  
         0.17712E-04           0.19233E-04           0.23466E-04           0.32640E-04           0.45082E-04           0.58615E-04  
         0.72367E-04           0.84485E-04           0.92226E-04           0.94709E-04           0.88457E-04           0.88007E-04  
         0.84508E-04           0.75753E-04           0.63988E-04           0.52288E-04           0.41194E-04           0.31520E-04  
         0.25296E-04           0.21947E-04           0.17413E-04           0.10241E-04           0.49611E-05           0.41132E-05  
         0.66415E-05           0.87213E-05           0.66415E-05           0.41132E-05           0.49611E-05           0.10241E-04  
         0.17413E-04           0.21947E-04           0.25296E-04           0.31520E-04           0.41194E-04           0.52288E-04  
         0.63988E-04           0.75753E-04           0.84508E-04           0.88007E-04           0.88457E-04           0.96513E-04  
         0.99732E-04           0.10293E-03           0.96792E-04           0.84014E-04           0.72972E-04           0.64023E-04  
         0.52585E-04           0.39680E-04           0.30229E-04           0.24614E-04           0.19390E-04           0.13563E-04  
         0.94313E-05           0.78847E-05           0.76700E-05           0.78847E-05           0.94313E-05           0.13563E-04  
         0.19390E-04           0.24614E-04           0.30229E-04           0.39680E-04           0.52585E-04           0.64023E-04  
         0.72972E-04           0.84014E-04           0.96792E-04           0.10293E-03           0.99732E-04           0.96513E-04  
         0.17245E-03           0.17860E-03           0.18257E-03           0.16415E-03           0.13235E-03           0.10900E-03  
         0.95533E-04           0.78267E-04           0.54278E-04           0.35422E-04           0.27420E-04           0.25158E-04  
         0.21395E-04           0.14727E-04           0.91917E-05           0.72787E-05           0.91917E-05           0.14727E-04  
         0.21395E-04           0.25158E-04           0.27420E-04           0.35422E-04           0.54278E-04           0.78267E-04  
         0.95533E-04           0.10900E-03           0.13235E-03           0.16415E-03           0.18257E-03           0.17860E-03  
         0.17245E-03           0.36228E-03           0.36916E-03           0.36307E-03           0.30993E-03           0.23282E-03  
         0.17614E-03           0.14424E-03           0.11350E-03           0.75236E-04           0.44748E-04           0.30593E-04  
         0.26296E-04           0.22882E-04           0.17223E-04           0.12192E-04           0.10350E-04           0.12192E-04  
         0.17223E-04           0.22882E-04           0.26296E-04           0.30593E-04           0.44748E-04           0.75236E-04  
         0.11350E-03           0.14424E-03           0.17614E-03           0.23282E-03           0.30993E-03           0.36307E-03  
         0.36916E-03           0.36228E-03           0.64970E-03           0.65618E-03           0.63787E-03           0.54676E-03  
         0.41484E-03           0.30765E-03           0.23832E-03           0.18100E-03           0.12376E-03           0.78072E-04  
         0.50090E-04           0.33708E-04           0.23658E-04           0.19266E-04           0.19387E-04           0.20279E-04  
         0.19387E-04           0.19266E-04           0.23658E-04           0.33708E-04           0.50090E-04           0.78072E-04  
         0.12376E-03           0.18100E-03           0.23832E-03           0.30765E-03           0.41484E-03           0.54676E-03  
         0.63787E-03           0.65618E-03           0.64970E-03           0.10891E-02           0.10897E-02           0.10519E-02  
         0.92439E-03           0.73665E-03           0.55789E-03           0.41455E-03           0.29955E-03           0.21138E-03  
         0.14923E-03           0.10039E-03           0.57515E-04           0.30169E-04           0.23327E-04           0.30359E-04  
         0.36582E-04           0.30359E-04           0.23327E-04           0.30169E-04           0.57515E-04           0.10039E-03  
         0.14923E-03           0.21138E-03           0.29955E-03           0.41455E-03           0.55789E-03           0.73665E-03  
         0.92439E-03           0.10519E-02           0.10897E-02           0.10891E-02           0.21204E-02           0.20788E-02  
         0.19357E-02           0.16828E-02           0.13662E-02           0.10402E-02           0.73549E-03           0.48825E-03  
         0.33034E-03           0.24441E-03           0.17642E-03           0.10044E-03           0.46074E-04           0.30935E-04  
         0.41440E-04           0.51914E-04           0.41440E-04           0.30935E-04           0.46074E-04           0.10044E-03  
         0.17642E-03           0.24441E-03           0.33034E-03           0.48825E-03           0.73549E-03           0.10402E-02  
         0.13662E-02           0.16828E-02           0.19357E-02           0.20788E-02           0.21204E-02           0.46514E-02  
         0.44669E-02           0.39702E-02           0.33096E-02           0.26283E-02           0.19707E-02           0.13428E-02  
         0.82485E-03           0.50452E-03           0.35167E-03           0.25903E-03           0.15808E-03           0.76235E-04  
         0.46443E-04           0.52867E-04           0.62764E-04           0.52867E-04           0.46443E-04           0.76235E-04  
         0.15808E-03           0.25903E-03           0.35167E-03           0.50452E-03           0.82485E-03           0.13428E-02  
         0.19707E-02           0.26283E-02           0.33096E-02           0.39702E-02           0.44669E-02           0.46514E-02  
         0.95722E-02           0.91231E-02           0.79324E-02           0.63996E-02           0.49142E-02           0.36074E-02  
         0.24393E-02           0.14678E-02           0.82899E-03           0.50783E-03           0.34937E-03           0.22670E-03  
         0.12554E-03           0.76173E-04           0.69168E-04           0.73059E-04           0.69168E-04           0.76173E-04  
         0.12554E-03           0.22670E-03           0.34937E-03           0.50783E-03           0.82899E-03           0.14678E-02  
         0.24393E-02           0.36074E-02           0.49142E-02           0.63996E-02           0.79324E-02           0.91231E-02  
         0.95722E-02           0.17763E-01           0.17048E-01           0.14962E-01           0.11936E-01           0.88092E-02  
         0.61950E-02           0.41440E-02           0.25356E-02           0.14048E-02           0.76667E-03           0.46129E-03  
         0.29835E-03           0.18667E-03           0.11796E-03           0.89375E-04           0.83205E-04           0.89375E-04  
         0.11796E-03           0.18667E-03           0.29835E-03           0.46129E-03           0.76667E-03           0.14048E-02  
         0.25356E-02           0.41440E-02           0.61950E-02           0.88092E-02           0.11936E-01           0.14962E-01  
         0.17048E-01           0.17763E-01           0.33121E-01           0.32257E-01           0.29031E-01           0.23084E-01  
         0.16099E-01           0.10340E-01           0.64842E-02           0.39521E-02           0.22138E-02           0.11355E-02  
         0.59564E-03           0.35961E-03           0.23911E-03           0.15710E-03           0.10580E-03           0.88853E-04  
         0.10580E-03           0.15710E-03           0.23911E-03           0.35961E-03           0.59564E-03           0.11355E-02  
         0.22138E-02           0.39521E-02           0.64842E-02           0.10340E-01           0.16099E-01           0.23084E-01  
         0.29031E-01           0.32257E-01           0.33121E-01           0.65957E-01           0.64985E-01           0.59588E-01  
         0.46989E-01           0.30717E-01           0.17452E-01           0.96390E-02           0.55381E-02           0.31122E-02  
         0.15697E-02           0.75066E-03           0.41372E-03           0.27747E-03           0.18736E-03           0.11831E-03  
         0.92757E-04           0.11831E-03           0.18736E-03           0.27747E-03           0.41372E-03           0.75066E-03  
         0.15697E-02           0.31122E-02           0.55381E-02           0.96390E-02           0.17452E-01           0.30717E-01  
         0.46989E-01           0.59588E-01           0.64985E-01           0.65957E-01           0.12636E+00           0.12505E+00  
         0.11528E+00           0.89841E-01           0.55836E-01           0.28546E-01           0.13721E-01           0.71586E-02  
         0.39583E-02           0.20139E-02           0.93049E-03           0.48098E-03           0.31868E-03           0.22000E-03  
         0.13700E-03           0.10457E-03           0.13700E-03           0.22000E-03           0.31868E-03           0.48098E-03  
         0.93049E-03           0.20139E-02           0.39583E-02           0.71586E-02           0.13721E-01           0.28546E-01  
         0.55836E-01           0.89841E-01           0.11528E+00           0.12505E+00           0.12636E+00           0.19904E+00  
         0.19706E+00           0.18148E+00           0.14017E+00           0.84706E-01           0.40701E-01           0.17770E-01  
         0.85274E-02           0.46100E-02           0.23810E-02           0.11028E-02           0.55687E-03           0.36580E-03  
         0.25703E-03           0.16251E-03           0.12440E-03           0.16251E-03           0.25703E-03           0.36580E-03  
         0.55687E-03           0.11028E-02           0.23810E-02           0.46100E-02           0.85274E-02           0.17770E-01  
         0.40701E-01           0.84706E-01           0.14017E+00           0.18148E+00           0.19706E+00           0.19904E+00  
         0.23385E+00           0.23147E+00           0.21296E+00           0.16396E+00           0.98234E-01           0.46292E-01  
         0.19559E-01           0.90915E-02           0.48654E-02           0.25302E-02           0.11788E-02           0.59327E-03  
         0.38896E-03           0.27524E-03           0.17577E-03           0.13523E-03           0.17577E-03           0.27524E-03  
         0.38896E-03           0.59327E-03           0.11788E-02           0.25302E-02           0.48654E-02           0.90915E-02  
         0.19559E-01           0.46292E-01           0.98234E-01           0.16396E+00           0.21296E+00           0.23147E+00  
         0.23385E+00           0.19904E+00           0.19706E+00           0.18148E+00           0.14017E+00           0.84706E-01  
         0.40701E-01           0.17770E-01           0.85274E-02           0.46100E-02           0.23810E-02           0.11028E-02  
         0.55687E-03           0.36580E-03           0.25703E-03           0.16251E-03           0.12440E-03           0.16251E-03  
         0.25703E-03           0.36580E-03           0.55687E-03           0.11028E-02           0.23810E-02           0.46100E-02  
         0.85274E-02           0.17770E-01           0.40701E-01           0.84706E-01           0.14017E+00           0.18148E+00  
         0.19706E+00           0.19904E+00           0.17017E+00           0.16850E+00           0.15530E+00           0.12032E+00  
         0.73355E-01           0.35948E-01           0.16203E-01           0.80075E-02           0.43665E-02           0.22419E-02  
         0.10350E-02           0.52580E-03           0.34657E-03           0.24216E-03           0.15204E-03           0.11606E-03  
         0.15204E-03           0.24216E-03           0.34657E-03           0.52580E-03           0.10350E-02           0.22419E-02  
         0.43665E-02           0.80075E-02           0.16203E-01           0.35948E-01           0.73355E-01           0.12032E+00  
         0.15530E+00           0.16850E+00           0.17017E+00           0.10964E+00           0.10847E+00           0.10001E+00  
         0.78159E-01           0.49026E-01           0.25560E-01           0.12637E-01           0.67399E-02           0.37450E-02  
         0.18990E-02           0.88035E-03           0.46053E-03           0.30688E-03           0.21135E-03           0.13170E-03  
         0.10082E-03           0.13170E-03           0.21135E-03           0.30688E-03           0.46053E-03           0.88035E-03  
         0.18990E-02           0.37450E-02           0.67399E-02           0.12637E-01           0.25560E-01           0.49026E-01  
         0.78159E-01           0.10001E+00           0.10847E+00           0.10964E+00           0.58776E-01           0.57865E-01  
         0.53013E-01           0.41895E-01           0.27624E-01           0.15959E-01           0.89890E-02           0.52241E-02  
         0.29383E-02           0.14824E-02           0.71604E-03           0.40054E-03           0.26996E-03           0.18229E-03  
         0.11600E-03           0.91654E-04           0.11600E-03           0.18229E-03           0.26996E-03           0.40054E-03  
         0.71604E-03           0.14824E-02           0.29383E-02           0.52241E-02           0.89890E-02           0.15959E-01  
         0.27624E-01           0.41895E-01           0.53013E-01           0.57865E-01           0.58776E-01           0.30484E-01  
         0.29663E-01           0.26664E-01           0.21227E-01           0.14889E-01           0.96526E-02           0.61009E-02  
         0.37250E-02           0.20833E-02           0.10721E-02           0.56931E-03           0.34757E-03           0.23132E-03  
         0.15197E-03           0.10335E-03           0.87531E-04           0.10335E-03           0.15197E-03           0.23132E-03  
         0.34757E-03           0.56931E-03           0.10721E-02           0.20833E-02           0.37250E-02           0.61009E-02  
         0.96526E-02           0.14889E-01           0.21227E-01           0.26664E-01           0.29663E-01           0.30484E-01  
         0.16705E-01           0.16031E-01           0.14069E-01           0.11233E-01           0.83044E-02           0.58476E-02  
         0.39080E-02           0.23835E-02           0.13177E-02           0.72196E-03           0.43836E-03           0.28496E-03  
         0.17792E-03           0.11239E-03           0.85905E-04           0.80492E-04           0.85905E-04           0.11239E-03  
         0.17792E-03           0.28496E-03           0.43836E-03           0.72196E-03           0.13177E-02           0.23835E-02  
         0.39080E-02           0.58476E-02           0.83044E-02           0.11233E-01           0.14069E-01           0.16031E-01  
         0.16705E-01           0.90468E-02           0.86285E-02           0.75138E-02           0.60679E-02           0.46571E-02  
         0.34118E-02           0.23006E-02           0.13803E-02           0.77822E-03           0.47746E-03           0.32987E-03  
         0.21482E-03           0.11918E-03           0.72501E-04           0.66123E-04           0.69991E-04           0.66123E-04  
         0.72501E-04           0.11918E-03           0.21482E-03           0.32987E-03           0.47746E-03           0.77822E-03  
         0.13803E-02           0.23006E-02           0.34118E-02           0.46571E-02           0.60679E-02           0.75138E-02  
         0.86285E-02           0.90468E-02           0.43937E-02           0.42229E-02           0.37593E-02           0.31358E-02  
         0.24892E-02           0.18666E-02           0.12740E-02           0.78390E-03           0.47887E-03           0.33284E-03  
         0.24574E-03           0.15178E-03           0.74696E-04           0.45973E-04           0.51603E-04           0.60732E-04  
         0.51603E-04           0.45973E-04           0.74696E-04           0.15178E-03           0.24574E-03           0.33284E-03  
         0.47887E-03           0.78390E-03           0.12740E-02           0.18666E-02           0.24892E-02           0.31358E-02  
         0.37593E-02           0.42229E-02           0.43937E-02           0.20121E-02           0.19723E-02           0.18349E-02  
         0.15932E-02           0.12945E-02           0.99130E-03           0.70787E-03           0.47351E-03           0.31986E-03  
         0.23523E-03           0.17091E-03           0.10041E-03           0.48533E-04           0.32954E-04           0.41926E-04  
         0.51239E-04           0.41926E-04           0.32954E-04           0.48533E-04           0.10041E-03           0.17091E-03  
         0.23523E-03           0.31986E-03           0.47351E-03           0.70787E-03           0.99130E-03           0.12945E-02  
         0.15932E-02           0.18349E-02           0.19723E-02           0.20121E-02           0.10384E-02           0.10369E-02  
         0.99599E-03           0.87179E-03           0.69639E-03           0.53400E-03           0.40404E-03           0.29548E-03  
         0.20828E-03           0.14645E-03           0.10023E-03           0.60629E-04           0.34131E-04           0.26251E-04  
         0.31519E-04           0.36595E-04           0.31519E-04           0.26251E-04           0.34131E-04           0.60629E-04  
         0.10023E-03           0.14645E-03           0.20828E-03           0.29548E-03           0.40404E-03           0.53400E-03  
         0.69639E-03           0.87179E-03           0.99599E-03           0.10369E-02           0.10384E-02           0.61518E-03  
         0.61914E-03           0.59726E-03           0.50902E-03           0.38761E-03           0.29254E-03           0.23197E-03  
         0.17869E-03           0.12234E-03           0.77331E-04           0.51054E-04           0.36515E-04           0.27001E-04  
         0.21621E-04           0.20204E-04           0.20316E-04           0.20204E-04           0.21621E-04           0.27001E-04  
         0.36515E-04           0.51054E-04           0.77331E-04           0.12234E-03           0.17869E-03           0.23197E-03  
         0.29254E-03           0.38761E-03           0.50902E-03           0.59726E-03           0.61914E-03           0.61518E-03  
         0.33911E-03           0.34408E-03           0.33538E-03           0.28455E-03           0.21479E-03           0.16570E-03  
         0.13881E-03           0.11048E-03           0.73259E-04           0.43734E-04           0.30768E-04           0.27678E-04  