  ABINIT 8.11.13
  
  Give name for formatted input file: 
opt.in
  Give name for formatted output file:
opt.out
  Give root name for generic input files:
opti
  Give root name for generic output files:
opto
  Give root name for generic temporary files:
opt
 
--- !COMMENT
src_file: m_dtfil.F90
src_line: 1450
message: |
    Output file: opt.out already exists.
...
 
 
--- !COMMENT
src_file: m_dtfil.F90
src_line: 1474
message: |
    Renaming old opt.out to opt.out0002
...
 

.Version 8.11.13 of ABINIT 
.(MPI version, prepared for a x86_64_linux_intel14.0 computer) 

.Copyright (C) 1998-2019 ABINIT group . 
 ABINIT comes with ABSOLUTELY NO WARRANTY.
 It is free software, and you are welcome to redistribute it
 under certain conditions (GNU General Public License,
 see ~abinit/COPYING or http://www.gnu.org/copyleft/gpl.txt).

 ABINIT is a project of the Universite Catholique de Louvain,
 Corning Inc. and other collaborators, see ~abinit/doc/developers/contributors.txt .
 Please read https://docs.abinit.org/theory/acknowledgments for suggested
 acknowledgments of the ABINIT effort.
 For more information, see https://www.abinit.org .

.Starting date : Fri  3 Jan 2020.
- ( at 15h42 )
  
 
 ++++++++++++++++++++++++++++++++++++++++++++++++++++++++++++++++++++++++++++++
 
 === Build Information === 
  Version       : 8.11.13
  Build target  : x86_64_linux_intel14.0
  Build date    : 20191206
 
 === Compiler Suite === 
  C compiler       : intel14.0
  C++ compiler     : gnu14.0
  Fortran compiler : intel14.0
  CFLAGS           :  -g -O2
  CXXFLAGS         :  -g -O2 -mtune=native -march=native
  FCFLAGS          :  -g -extend-source -nofpscomp
  FC_LDFLAGS       :    -static-intel -static-libgcc
 
 === Optimizations === 
  Debug level        : basic
  Optimization level : standard
  Architecture       : intel_xeon
 
 === Multicore === 
  Parallel build : yes
  Parallel I/O   : yes
  openMP support : no
  GPU support    : no
 
 === Connectors / Fallbacks === 
  Connectors on : yes
  Fallbacks on  : yes
  DFT flavor    : libxc-fallback
  FFT flavor    : fftw3
  LINALG flavor : mkl
  TIMER flavor  : abinit
  TRIO flavor   : netcdf
 
 === Experimental features === 
  Exports             : no
  GW double-precision : yes
 
 ++++++++++++++++++++++++++++++++++++++++++++++++++++++++++++++++++++++++++++++
 

 ++++++++++++++++++++++++++++++++++++++++++++++++++++++++++++++++++++++++++++++
 Default optimizations:
   -O3


 Optimizations for 43_ptgroups:
   -O0


 ++++++++++++++++++++++++++++++++++++++++++++++++++++++++++++++++++++++++++++++


 ++++++++++++++++++++++++++++++++++++++++++++++++++++++++++++++++++++++++++++++
 CPP options activated during the build:

                  CC_INTEL                   CXX_GNU                  FC_INTEL
 
 HAVE_FC_ALLOCATABLE_DT...             HAVE_FC_ASYNC  HAVE_FC_COMMAND_ARGUMENT
 
        HAVE_FC_CONTIGUOUS           HAVE_FC_CPUTIME             HAVE_FC_ETIME
 
              HAVE_FC_EXIT             HAVE_FC_FLUSH             HAVE_FC_GAMMA
 
            HAVE_FC_GETENV            HAVE_FC_GETPID   HAVE_FC_IEEE_ARITHMETIC
 
   HAVE_FC_IEEE_EXCEPTIONS             HAVE_FC_IOMSG     HAVE_FC_ISO_C_BINDING
 
  HAVE_FC_ISO_FORTRAN_2008        HAVE_FC_LONG_LINES        HAVE_FC_MOVE_ALLOC
 
  HAVE_FC_ON_THE_FLY_SHAPE           HAVE_FC_PRIVATE         HAVE_FC_PROTECTED
 
           HAVE_FC_SHIFTLR         HAVE_FC_STREAM_IO            HAVE_FC_SYSTEM
 
                  HAVE_FFT            HAVE_FFT_FFTW3              HAVE_FFT_MPI
 
           HAVE_FFT_SERIAL               HAVE_GW_DPC        HAVE_LIBPAW_ABINIT
 
      HAVE_LIBTETRA_ABINIT                HAVE_LIBXC               HAVE_LINALG
 
         HAVE_LINALG_AXPBY        HAVE_LINALG_GEMM3M  HAVE_LINALG_MKL_IMATCOPY
 
   HAVE_LINALG_MKL_OMATADD  HAVE_LINALG_MKL_OMATCOPY   HAVE_LINALG_MKL_THREADS
 
        HAVE_LINALG_SERIAL                  HAVE_MPI                 HAVE_MPI2
 
       HAVE_MPI_IALLREDUCE        HAVE_MPI_IALLTOALL       HAVE_MPI_IALLTOALLV
 
           HAVE_MPI_IBCAST         HAVE_MPI_IGATHERV        HAVE_MPI_INTEGER16
 
               HAVE_MPI_IO HAVE_MPI_TYPE_CREATE_S...               HAVE_NETCDF
 
           HAVE_NETCDF_MPI                HAVE_NUMPY             HAVE_OS_LINUX
 
         HAVE_TIMER_ABINIT                  HAVE_XML              USE_MACROAVE
 
 ++++++++++++++++++++++++++++++++++++++++++++++++++++++++++++++++++++++++++++++

- input  file    -> opt.in
- output file    -> opt.out
- root for input  files -> opti
- root for output files -> opto
 
Netcdf library supports MPI-IO
-instrng: 53 lines of input have been read from file opt.in
 

 Please give name of formatted atomic psp file
 For atom type 1, psp file is /CECI/home/ucl/naps/jovbever/.PsP/Si/Si.psp8
  read the values zionpsp=  4.0 , pspcod=   8 , lmax=   2
 
 inpspheads: deduce mpsang = 3, n1xccc = 2501.

======================================================= 
invars1m : enter jdtset= 0
 
 symlatt: the Bravais lattice is cF (face-centered cubic)
  xred   is defined in input file
 ingeo: takes atomic coordinates from input array xred
 
 symlatt: the Bravais lattice is cF (face-centered cubic)
 
 symlatt: the Bravais lattice is cF (face-centered cubic)
 symspgr: spgroup= 227  Fd -3 m   (=Oh^7)
 symspgr: optical characteristics = isotropic
 For input ecut=  5.512500E+01 best grid ngfft=      27      27      27
       max ecut=  5.591999E+01
 
 ==== FFT mesh ====
  FFT mesh divisions ........................    27   27   27
  Augmented FFT divisions ...................    27   27   27
  FFT algorithm .............................   312
  FFT cache size ............................    16
 getmpw: optimal value of mpw= 821
 
 Symmetries : space group Fd -3 m (#227); Bravais cF (face-center cubic)
 
 getdim_nloc : deduce lmnmax  =  18, lnmax  =   6,
                      lmnmaxso=  18, lnmaxso=   6.
memory: analysis of memory needs
================================================================================
 Values of the parameters that define the memory need of the present run
     intxc =       0    ionmov =       2      iscf =       7    lmnmax =       6
     lnmax =       6     mgfft =      27  mpssoang =       3    mqgrid =    3001
     natom =       2  nloc_mem =       1    nspden =       1   nspinor =       1
    nsppol =       1      nsym =      48    n1xccc =    2501    ntypat =       1
    occopt =       1   xclevel =       2
-    mband =           4        mffmem =           1         mkmem =         204
       mpw =         821          nfft =       19683          nkpt =         408
================================================================================
P This job should need less than                      19.208 Mbytes of memory.
  Rough estimation (10% accuracy) of disk space for files :
_ WF disk file :     20.447 Mbytes ; DEN or POT disk file :      0.152 Mbytes.
================================================================================
 
 Biggest array : cg(disk), with     10.2244 MBytes.
 memana : allocated an array of     10.224 Mbytes, for testing purposes.
 memana: allocated      19.208Mbytes, for testing purposes. 
 The job will continue.
--------------------------------------------------------------------------------
------------- Echo of variables that govern the present computation ------------
--------------------------------------------------------------------------------
-
- outvars: echo of selected default values                                      
-   iomode0 =  0 , fftalg0 =312 , wfoptalg0 =  0
-
- outvars: echo of global parameters not present in the input file              
-  max_nthreads =    0
-
 -outvars: echo values of preprocessed input variables --------
 
 These variables are accessible in NetCDF format (opto_OUT.nc)

            acell      5.4695448600E+00  5.4695448600E+00  5.4695448600E+00 Bohr
              amu      2.80855000E+01
          dilatmx      1.05000000E+00
             ecut      5.00000000E+01 Hartree
           ecutsm      5.00000000E-01 Hartree
-          fftalg         312
           ionmov           2
              ixc          11
              kpt     -3.12500000E-02 -6.25000000E-02  0.00000000E+00
                      -3.12500000E-02 -1.25000000E-01  0.00000000E+00
                      -6.25000000E-02 -9.37500000E-02  0.00000000E+00
                      -3.12500000E-02 -9.37500000E-02  3.12500000E-02
                      -3.12500000E-02 -1.87500000E-01  0.00000000E+00
                      -6.25000000E-02 -1.56250000E-01  0.00000000E+00
                      -3.12500000E-02 -1.56250000E-01  3.12500000E-02
                      -9.37500000E-02 -1.25000000E-01  0.00000000E+00
                      -6.25000000E-02 -1.25000000E-01  3.12500000E-02
                      -3.12500000E-02 -1.25000000E-01  6.25000000E-02
                      -3.12500000E-02 -2.50000000E-01  0.00000000E+00
                      -6.25000000E-02 -2.18750000E-01  0.00000000E+00
                      -3.12500000E-02 -2.18750000E-01  3.12500000E-02
                      -9.37500000E-02 -1.87500000E-01  0.00000000E+00
                      -6.25000000E-02 -1.87500000E-01  3.12500000E-02
                      -3.12500000E-02 -1.87500000E-01  6.25000000E-02
                      -1.25000000E-01 -1.56250000E-01  0.00000000E+00
                      -9.37500000E-02 -1.56250000E-01  3.12500000E-02
                      -6.25000000E-02 -1.56250000E-01  6.25000000E-02
                      -3.12500000E-02 -1.56250000E-01  9.37500000E-02
                      -3.12500000E-02 -3.12500000E-01  0.00000000E+00
                      -6.25000000E-02 -2.81250000E-01  0.00000000E+00
                      -3.12500000E-02 -2.81250000E-01  3.12500000E-02
                      -9.37500000E-02 -2.50000000E-01  0.00000000E+00
                      -6.25000000E-02 -2.50000000E-01  3.12500000E-02
                      -3.12500000E-02 -2.50000000E-01  6.25000000E-02
                      -1.25000000E-01 -2.18750000E-01  0.00000000E+00
                      -9.37500000E-02 -2.18750000E-01  3.12500000E-02
                      -6.25000000E-02 -2.18750000E-01  6.25000000E-02
                      -3.12500000E-02 -2.18750000E-01  9.37500000E-02
                      -1.56250000E-01 -1.87500000E-01  0.00000000E+00
                      -1.25000000E-01 -1.87500000E-01  3.12500000E-02
                      -9.37500000E-02 -1.87500000E-01  6.25000000E-02
                      -6.25000000E-02 -1.87500000E-01  9.37500000E-02
                      -3.12500000E-02 -1.87500000E-01  1.25000000E-01
                      -3.12500000E-02 -3.75000000E-01  0.00000000E+00
                      -6.25000000E-02 -3.43750000E-01  0.00000000E+00
                      -3.12500000E-02 -3.43750000E-01  3.12500000E-02
                      -9.37500000E-02 -3.12500000E-01  0.00000000E+00
                      -6.25000000E-02 -3.12500000E-01  3.12500000E-02
                      -3.12500000E-02 -3.12500000E-01  6.25000000E-02
                      -1.25000000E-01 -2.81250000E-01  0.00000000E+00
                      -9.37500000E-02 -2.81250000E-01  3.12500000E-02
                      -6.25000000E-02 -2.81250000E-01  6.25000000E-02
                      -3.12500000E-02 -2.81250000E-01  9.37500000E-02
                      -1.56250000E-01 -2.50000000E-01  0.00000000E+00
                      -1.25000000E-01 -2.50000000E-01  3.12500000E-02
                      -9.37500000E-02 -2.50000000E-01  6.25000000E-02
                      -6.25000000E-02 -2.50000000E-01  9.37500000E-02
                      -3.12500000E-02 -2.50000000E-01  1.25000000E-01
                       outvar_i_n : Printing only first  50 k-points.
         kptrlatt       16  -16   16    -16   16   16    -16  -16   16
          kptrlen      8.75127178E+01
P           mkmem         204
            natom           2
            nband           4
            ngfft          27      27      27
             nkpt         408
             nsym          48
           ntypat           1
              occ      2.000000  2.000000  2.000000  2.000000
          optcell           2
            rprim      5.0000000000E-01  5.0000000000E-01  0.0000000000E+00
                       0.0000000000E+00  5.0000000000E-01  5.0000000000E-01
                       5.0000000000E-01  0.0000000000E+00  5.0000000000E-01
           shiftk      5.00000000E-01  5.00000000E-01  5.00000000E-01
          spgroup         227
           symrel      1  0  0   0  1  0   0  0  1      -1  0  0   0 -1  0   0  0 -1
                       0 -1  1   0 -1  0   1 -1  0       0  1 -1   0  1  0  -1  1  0
                      -1  0  0  -1  0  1  -1  1  0       1  0  0   1  0 -1   1 -1  0
                       0  1 -1   1  0 -1   0  0 -1       0 -1  1  -1  0  1   0  0  1
                      -1  0  0  -1  1  0  -1  0  1       1  0  0   1 -1  0   1  0 -1
                       0 -1  1   1 -1  0   0 -1  0       0  1 -1  -1  1  0   0  1  0
                       1  0  0   0  0  1   0  1  0      -1  0  0   0  0 -1   0 -1  0
                       0  1 -1   0  0 -1   1  0 -1       0 -1  1   0  0  1  -1  0  1
                      -1  0  1  -1  1  0  -1  0  0       1  0 -1   1 -1  0   1  0  0
                       0 -1  0   1 -1  0   0 -1  1       0  1  0  -1  1  0   0  1 -1
                       1  0 -1   0  0 -1   0  1 -1      -1  0  1   0  0  1   0 -1  1
                       0  1  0   0  0  1   1  0  0       0 -1  0   0  0 -1  -1  0  0
                       1  0 -1   0  1 -1   0  0 -1      -1  0  1   0 -1  1   0  0  1
                       0 -1  0   0 -1  1   1 -1  0       0  1  0   0  1 -1  -1  1  0
                      -1  0  1  -1  0  0  -1  1  0       1  0 -1   1  0  0   1 -1  0
                       0  1  0   1  0  0   0  0  1       0 -1  0  -1  0  0   0  0 -1
                       0  0 -1   0  1 -1   1  0 -1       0  0  1   0 -1  1  -1  0  1
                       1 -1  0   0 -1  1   0 -1  0      -1  1  0   0  1 -1   0  1  0
                       0  0  1   1  0  0   0  1  0       0  0 -1  -1  0  0   0 -1  0
                      -1  1  0  -1  0  0  -1  0  1       1 -1  0   1  0  0   1  0 -1
                       0  0  1   0  1  0   1  0  0       0  0 -1   0 -1  0  -1  0  0
                       1 -1  0   0 -1  0   0 -1  1      -1  1  0   0  1  0   0  1 -1
                       0  0 -1   1  0 -1   0  1 -1       0  0  1  -1  0  1   0 -1  1
                      -1  1  0  -1  0  1  -1  0  0       1 -1  0   1  0 -1   1  0  0
            tnons      0.0000000  0.0000000  0.0000000     0.2500000  0.2500000  0.2500000
                       0.0000000  0.0000000  0.0000000     0.2500000  0.2500000  0.2500000
                       0.0000000  0.0000000  0.0000000     0.2500000  0.2500000  0.2500000
                       0.0000000  0.0000000  0.0000000     0.2500000  0.2500000  0.2500000
                       0.0000000  0.0000000  0.0000000     0.2500000  0.2500000  0.2500000
                       0.0000000  0.0000000  0.0000000     0.2500000  0.2500000  0.2500000
                       0.0000000  0.0000000  0.0000000     0.2500000  0.2500000  0.2500000
                       0.0000000  0.0000000  0.0000000     0.2500000  0.2500000  0.2500000
                       0.0000000  0.0000000  0.0000000     0.2500000  0.2500000  0.2500000
                       0.0000000  0.0000000  0.0000000     0.2500000  0.2500000  0.2500000
                       0.0000000  0.0000000  0.0000000     0.2500000  0.2500000  0.2500000
                       0.0000000  0.0000000  0.0000000     0.2500000  0.2500000  0.2500000
                       0.0000000  0.0000000  0.0000000     0.2500000  0.2500000  0.2500000
                       0.0000000  0.0000000  0.0000000     0.2500000  0.2500000  0.2500000
                       0.0000000  0.0000000  0.0000000     0.2500000  0.2500000  0.2500000
                       0.0000000  0.0000000  0.0000000     0.2500000  0.2500000  0.2500000
                       0.0000000  0.0000000  0.0000000     0.2500000  0.2500000  0.2500000
                       0.0000000  0.0000000  0.0000000     0.2500000  0.2500000  0.2500000
                       0.0000000  0.0000000  0.0000000     0.2500000  0.2500000  0.2500000
                       0.0000000  0.0000000  0.0000000     0.2500000  0.2500000  0.2500000
                       0.0000000  0.0000000  0.0000000     0.2500000  0.2500000  0.2500000
                       0.0000000  0.0000000  0.0000000     0.2500000  0.2500000  0.2500000
                       0.0000000  0.0000000  0.0000000     0.2500000  0.2500000  0.2500000
                       0.0000000  0.0000000  0.0000000     0.2500000  0.2500000  0.2500000
           tolvrs      1.00000000E-08
            typat      1  1
              wtk        0.00146    0.00146    0.00146    0.00293    0.00146    0.00146
                         0.00293    0.00146    0.00293    0.00293    0.00146    0.00146
                         0.00293    0.00146    0.00293    0.00293    0.00146    0.00293
                         0.00293    0.00293    0.00146    0.00146    0.00293    0.00146
                         0.00293    0.00293    0.00146    0.00293    0.00293    0.00293
                         0.00146    0.00293    0.00293    0.00293    0.00293    0.00146
                         0.00146    0.00293    0.00146    0.00293    0.00293    0.00146
                         0.00293    0.00293    0.00293    0.00146    0.00293    0.00293
                         0.00293    0.00293
                       outvars : Printing only first  50 k-points.
           xangst      0.0000000000E+00  0.0000000000E+00  0.0000000000E+00
                       7.2358962032E-01  7.2358962032E-01  7.2358962032E-01
            xcart      0.0000000000E+00  0.0000000000E+00  0.0000000000E+00
                       1.3673862150E+00  1.3673862150E+00  1.3673862150E+00
             xred      0.0000000000E+00  0.0000000000E+00  0.0000000000E+00
                       2.5000000000E-01  2.5000000000E-01  2.5000000000E-01
            znucl       14.00000
 
================================================================================
 
 chkinp: Checking input parameters for consistency.
 DATA TYPE INFORMATION: 
 REAL:      Data type name: REAL(DP) 
            Kind value:      8
            Precision:      15
            Smallest nonnegligible quantity relative to 1:  0.22204460E-15
            Smallest positive number:                       0.22250739-307
            Largest representable number:                   0.17976931+309
 INTEGER:   Data type name: INTEGER(default) 
            Kind value: 4
            Bit size:   32
            Largest representable number: 2147483647
 LOGICAL:   Data type name: LOGICAL 
            Kind value: 4
 CHARACTER: Data type name: CHARACTER             Kind value: 1

  ==== OpenMP parallelism is OFF ====
 
  ==== Using MPI-2 specifications ==== 
  MPI-IO support is ON
  xmpi_tag_ub ................   1073741824
  xmpi_bsize_ch ..............            1
  xmpi_bsize_int .............            4
  xmpi_bsize_sp ..............            4
  xmpi_bsize_dp ..............            8
  xmpi_bsize_spc .............            8
  xmpi_bsize_dpc .............           16
  xmpio_bsize_frm ............            4
  xmpi_address_kind ..........            8
  xmpi_offset_kind ...........            8
  MPI_WTICK ..................   1.000000000000000E-006
 
================================================================================
== DATASET  1 ==================================================================
-   nproc =    2
 
 
--- !COMMENT
src_file: m_xgScalapack.F90
src_line: 237
message: |
    xgScalapack in auto mode
...
 
 
 getdim_nloc : deduce lmnmax  =  18, lnmax  =   6,
                      lmnmaxso=  18, lnmaxso=   6.
 Exchange-correlation functional for the present dataset will be:
  GGA: Perdew-Burke-Ernzerhof functional - ixc=11
 Citation for XC functional:
  J.P.Perdew, K.Burke, M.Ernzerhof, PRL 77, 3865 (1996)
 
 Unit cell volume ucvol=  4.0906618E+01 bohr^3
 Angles (23,13,12)=  6.00000000E+01  6.00000000E+01  6.00000000E+01 degrees
 
 getcut: wavevector=  0.0000  0.0000  0.0000  ngfft=  27  27  27
         ecut(hartree)=     55.125   => boxcut(ratio)=   2.01437
- pspini: atom type   1  psp file is /CECI/home/ucl/naps/jovbever/.PsP/Si/Si.psp8
- pspatm: opening atomic psp file    /CECI/home/ucl/naps/jovbever/.PsP/Si/Si.psp8
- Si    ONCVPSP-3.2.3.1  r_core=   1.60303   1.72197   1.91712
- 14.00000   4.00000    170510                znucl, zion, pspdat
    8   11    2    4       600   0.00000      pspcod,pspxc,lmax,lloc,mmax,r2well
    5.99000000000000    4.00000000000000    0.00000000000000   rchrg,fchrg,qchrg
     nproj     2     2     2
     extension_switch     1
  valence charge integrates to:    3.95328304696650     
  pspatm : epsatm=    9.34321699
         --- l  ekb(1:nproj) -->
             0    5.168965    0.829883
             1    2.571282    0.578307
             2   -2.427311   -0.488097
 pspatm: atomic psp has been read  and splines computed
 
   1.49491472E+02                                ecore*ucvol(ha*bohr**3)
 ==== Info on pseudopotentials ====
  Norm-conserving pseudopotentials
  Number of pseudopotentials ..    1
  Number of types of atoms   ..    1
  Scalar calculation (no spin-orbit term)
  Nonlocal part applied using Legendre polynomials
  Max number of non-local projectors over l and type   2
  Highest angular momentum +1 .......   3
  Max number of (l,n)   components ..   6
  Max number of (l,m,n) components ..   6
 
 Pseudo-Core Charge Info: 
   Number of radial points for pseudo-core charge .. 2501
   XC core-correction treatment (optnlxccc) ........    1
   Radius for pseudo-core charge for each type ..... 
 
  - Atom type    1 has pseudo-core radius ..  5.9900
 
 Info on the Q-grid used for form factors in spline form: 
   Number of q-points for radial functions ffspl ..   3001
   Number of q-points for vlspl ...................   3001
   vloc is computed in Reciprocal Space
   model core charge treated in real-space
 
  XC functional for type 1 is 11
  Pseudo valence available: yes
 
 wfconv:     4 bands initialized randomly with npw=   811, for ikpt=     1
 wfconv:     4 bands initialized randomly with npw=   807, for ikpt=     2
 wfconv:     4 bands initialized randomly with npw=   811, for ikpt=     3
 wfconv:     4 bands initialized randomly with npw=   812, for ikpt=     4
 wfconv:     4 bands initialized randomly with npw=   802, for ikpt=     5
 wfconv:     4 bands initialized randomly with npw=   805, for ikpt=     6
 wfconv:     4 bands initialized randomly with npw=   809, for ikpt=     7
 wfconv:     4 bands initialized randomly with npw=   809, for ikpt=     8
 wfconv:     4 bands initialized randomly with npw=   808, for ikpt=     9
 wfconv:     4 bands initialized randomly with npw=   811, for ikpt=    10
 wfconv:     4 bands initialized randomly with npw=   802, for ikpt=    11
 wfconv:     4 bands initialized randomly with npw=   804, for ikpt=    12
 wfconv:     4 bands initialized randomly with npw=   807, for ikpt=    13
 wfconv:     4 bands initialized randomly with npw=   801, for ikpt=    14
 wfconv:     4 bands initialized randomly with npw=   806, for ikpt=    15
 wfconv:     4 bands initialized randomly with npw=   808, for ikpt=    16
 wfconv:     4 bands initialized randomly with npw=   807, for ikpt=    17
 wfconv:     4 bands initialized randomly with npw=   807, for ikpt=    18
 wfconv:     4 bands initialized randomly with npw=   810, for ikpt=    19
 wfconv:     4 bands initialized randomly with npw=   810, for ikpt=    20
 wfconv:     4 bands initialized randomly with npw=   804, for ikpt=    21
 wfconv:     4 bands initialized randomly with npw=   802, for ikpt=    22
 wfconv:     4 bands initialized randomly with npw=   802, for ikpt=    23
 wfconv:     4 bands initialized randomly with npw=   804, for ikpt=    24
 wfconv:     4 bands initialized randomly with npw=   803, for ikpt=    25
 wfconv:     4 bands initialized randomly with npw=   808, for ikpt=    26
 wfconv:     4 bands initialized randomly with npw=   808, for ikpt=    27
 wfconv:     4 bands initialized randomly with npw=   805, for ikpt=    28
 wfconv:     4 bands initialized randomly with npw=   808, for ikpt=    29
 wfconv:     4 bands initialized randomly with npw=   807, for ikpt=    30
 wfconv:     4 bands initialized randomly with npw=   811, for ikpt=    31
 wfconv:     4 bands initialized randomly with npw=   806, for ikpt=    32
 wfconv:     4 bands initialized randomly with npw=   809, for ikpt=    33
 wfconv:     4 bands initialized randomly with npw=   811, for ikpt=    34
 wfconv:     4 bands initialized randomly with npw=   810, for ikpt=    35
 wfconv:     4 bands initialized randomly with npw=   801, for ikpt=    36
 wfconv:     4 bands initialized randomly with npw=   800, for ikpt=    37
 wfconv:     4 bands initialized randomly with npw=   799, for ikpt=    38
 wfconv:     4 bands initialized randomly with npw=   801, for ikpt=    39
 wfconv:     4 bands initialized randomly with npw=   801, for ikpt=    40
 wfconv:     4 bands initialized randomly with npw=   803, for ikpt=    41
 wfconv:     4 bands initialized randomly with npw=   804, for ikpt=    42
 wfconv:     4 bands initialized randomly with npw=   807, for ikpt=    43
 wfconv:     4 bands initialized randomly with npw=   805, for ikpt=    44
 wfconv:     4 bands initialized randomly with npw=   804, for ikpt=    45
 wfconv:     4 bands initialized randomly with npw=   812, for ikpt=    46
 wfconv:     4 bands initialized randomly with npw=   810, for ikpt=    47
 wfconv:     4 bands initialized randomly with npw=   809, for ikpt=    48
 wfconv:     4 bands initialized randomly with npw=   804, for ikpt=    49
 wfconv:     4 bands initialized randomly with npw=   803, for ikpt=    50
_setup2: Arith. and geom. avg. npw (full set) are     799.701     799.678
 initro: for itypat=  1, take pseudo charge density from pp file
 
================================================================================
 
=== [ionmov= 2] Broyden-Fletcher-Goldfard-Shanno method (forces)            
================================================================================
 
--- Iteration: (1/1) Internal Cycle: (1/1)
--------------------------------------------------------------------------------
 
 Cartesian coordinates (xcart) [bohr]
  0.00000000000000E+00  0.00000000000000E+00  0.00000000000000E+00
  1.36738621500000E+00  1.36738621500000E+00  1.36738621500000E+00
 Reduced coordinates (xred)
  0.00000000000000E+00  0.00000000000000E+00  0.00000000000000E+00
  2.50000000000000E-01  2.50000000000000E-01  2.50000000000000E-01
 Scale of Primitive Cell (acell) [bohr]
  5.46954486000000E+00  5.46954486000000E+00  5.46954486000000E+00
 Real space primitive translations (rprimd) [bohr]
  2.73477243000000E+00  2.73477243000000E+00  0.00000000000000E+00
  0.00000000000000E+00  2.73477243000000E+00  2.73477243000000E+00
  2.73477243000000E+00  0.00000000000000E+00  2.73477243000000E+00
 Unitary Cell Volume (ucvol) [Bohr^3]=  4.09066179509997E+01
 Angles (23,13,12)= [degrees]
  6.00000000000000E+01  6.00000000000000E+01  6.00000000000000E+01
 Lengths [Bohr]
  3.86755226051003E+00  3.86755226051003E+00  3.86755226051003E+00
 
---SELF-CONSISTENT-FIELD CONVERGENCE--------------------------------------------
 
 getcut: wavevector=  0.0000  0.0000  0.0000  ngfft=  27  27  27
         ecut(hartree)=     50.000   => boxcut(ratio)=   2.11509
 
 ITER STEP NUMBER     1
 vtorho: nnsclo_now=2, note that nnsclo,dbl_nnsclo,istep=0 0 1
 
--- !WARNING
src_file: m_vtorho.F90
src_line: 1699
message: |
    For k-point number 1,
    The minimal occupation factor is  2.000.
    An adequate monitoring of convergence requires it to be  at most 0.01_dp.
    Action: increase slightly the number of bands.
...
 
 Total charge density [el/Bohr^3]
      Maximum=    2.6036E-01  at reduced coord.    0.2593    0.7407    0.7407
      Minimum=    3.2847E-03  at reduced coord.    0.0000    0.0000    0.0000
   Integrated=    8.0000E+00
 ETOT  1  -4.2228983375763    -4.223E+00 4.700E-01 3.698E+01
 scprqt: <Vxc>= -6.7000963E-01 hartree
 
 Simple mixing update:
  residual square of the potential:    25.3041050374708
 scfcv_core: previous iteration took 15.49 [s]
 
 ITER STEP NUMBER     2
 vtorho: nnsclo_now=2, note that nnsclo,dbl_nnsclo,istep=0 0 2
 
--- !WARNING
src_file: m_vtorho.F90
src_line: 1699
message: |
    For k-point number 1,
    The minimal occupation factor is  2.000.
    An adequate monitoring of convergence requires it to be  at most 0.01_dp.
    Action: increase slightly the number of bands.
...
 
 Total charge density [el/Bohr^3]
      Maximum=    2.6054E-01  at reduced coord.    0.2593    0.7407    0.7407
      Minimum=    3.5960E-03  at reduced coord.    0.0000    0.0000    0.0000
   Integrated=    8.0000E+00
 ETOT  2  -4.2517653010755    -2.887E-02 3.943E-02 2.899E-02
 scprqt: <Vxc>= -6.6985223E-01 hartree
 
 Pulay update with  1 previous iterations:
 mixing of old trial potential: alpha(m:m-4)=   1.03     -0.270E-01
 scfcv_core: previous iteration took 15.41 [s]
 
 ITER STEP NUMBER     3
 vtorho: nnsclo_now=1, note that nnsclo,dbl_nnsclo,istep=0 0 3
 
--- !WARNING
src_file: m_vtorho.F90
src_line: 1699
message: |
    For k-point number 1,
    The minimal occupation factor is  2.000.
    An adequate monitoring of convergence requires it to be  at most 0.01_dp.
    Action: increase slightly the number of bands.
...
 
 Total charge density [el/Bohr^3]
      Maximum=    2.6050E-01  at reduced coord.    0.2593    0.7407    0.7407
      Minimum=    3.6112E-03  at reduced coord.    0.0000    0.0000    0.0000
   Integrated=    8.0000E+00
 ETOT  3  -4.2518060583881    -4.076E-05 6.867E-04 8.591E-05
 scprqt: <Vxc>= -6.6984880E-01 hartree
 
 Pulay update with  2 previous iterations:
 mixing of old trial potential: alpha(m:m-4)=   1.08     -0.831E-01  0.350E-02
 scfcv_core: previous iteration took  8.07 [s]
 
 ITER STEP NUMBER     4
 vtorho: nnsclo_now=1, note that nnsclo,dbl_nnsclo,istep=0 0 4
 
--- !WARNING
src_file: m_vtorho.F90
src_line: 1699
message: |
    For k-point number 1,
    The minimal occupation factor is  2.000.
    An adequate monitoring of convergence requires it to be  at most 0.01_dp.
    Action: increase slightly the number of bands.
...
 
 Total charge density [el/Bohr^3]
      Maximum=    2.6050E-01  at reduced coord.    0.2593    0.7407    0.7407
      Minimum=    3.6109E-03  at reduced coord.    0.0000    0.0000    0.0000
   Integrated=    8.0000E+00
 ETOT  4  -4.2518085693932    -2.511E-06 9.009E-05 4.156E-06
 scprqt: <Vxc>= -6.6984935E-01 hartree
 
 Pulay update with  3 previous iterations:
 mixing of old trial potential: alpha(m:m-4)=  0.954      0.449E-01  0.141E-02 -0.295E-03
 scfcv_core: previous iteration took  8.09 [s]
 
 ITER STEP NUMBER     5
 vtorho: nnsclo_now=1, note that nnsclo,dbl_nnsclo,istep=0 0 5
 
--- !WARNING
src_file: m_vtorho.F90
src_line: 1699
message: |
    For k-point number 1,
    The minimal occupation factor is  2.000.
    An adequate monitoring of convergence requires it to be  at most 0.01_dp.
    Action: increase slightly the number of bands.
...
 
 Total charge density [el/Bohr^3]
      Maximum=    2.6050E-01  at reduced coord.    0.2593    0.7407    0.7407
      Minimum=    3.6111E-03  at reduced coord.    0.0000    0.0000    0.0000
   Integrated=    8.0000E+00
 ETOT  5  -4.2518087964775    -2.271E-07 5.737E-06 1.827E-07
 scprqt: <Vxc>= -6.6984926E-01 hartree
 
 Pulay update with  4 previous iterations:
 mixing of old trial potential: alpha(m:m-4)=  0.963      0.553E-01 -0.196E-01  0.748E-03  0.424E-05
 scfcv_core: previous iteration took  8.10 [s]
 
 ITER STEP NUMBER     6
 vtorho: nnsclo_now=1, note that nnsclo,dbl_nnsclo,istep=0 0 6
 Total charge density [el/Bohr^3]
      Maximum=    2.6050E-01  at reduced coord.    0.2593    0.7407    0.7407
      Minimum=    3.6111E-03  at reduced coord.    0.0000    0.0000    0.0000
   Integrated=    8.0000E+00
 ETOT  6  -4.2518088217906    -2.531E-08 1.043E-06 1.328E-10
 scprqt: <Vxc>= -6.6984928E-01 hartree
 
 At SCF step    6       vres2   =  1.33E-10 < tolvrs=  1.00E-08 =>converged.
 
 Cartesian components of stress tensor (hartree/bohr^3)
  sigma(1 1)= -1.45358911E-01  sigma(3 2)=  0.00000000E+00
  sigma(2 2)= -1.45358911E-01  sigma(3 1)=  0.00000000E+00
  sigma(3 3)= -1.45358911E-01  sigma(2 1)=  0.00000000E+00
 
 
   fftdatar_write: About to write data to: opto_TIM1_DEN with iomode: IO_MODE_FORTRAN
 IO operation completed. cpu:  0.00 [s] , wall:  0.01 [s]
- Creating HDf5 file with MPI-IO support: opto_GSR.nc
 Write iteration in HIST netCDF file
 
---OUTPUT-----------------------------------------------------------------------
 
 Cartesian coordinates (xcart) [bohr]
  0.00000000000000E+00  0.00000000000000E+00  0.00000000000000E+00
  1.36738621500000E+00  1.36738621500000E+00  1.36738621500000E+00
 Reduced coordinates (xred)
  0.00000000000000E+00  0.00000000000000E+00  0.00000000000000E+00
  2.50000000000000E-01  2.50000000000000E-01  2.50000000000000E-01
 Cartesian forces (fcart) [Ha/bohr]; max,rms= 0.00000E+00 0.00000E+00 (free atoms)
  0.00000000000000E+00  0.00000000000000E+00  0.00000000000000E+00
  0.00000000000000E+00  0.00000000000000E+00  0.00000000000000E+00
 Reduced forces (fred)
  0.00000000000000E+00  0.00000000000000E+00  0.00000000000000E+00
  0.00000000000000E+00  0.00000000000000E+00  0.00000000000000E+00
 Scale of Primitive Cell (acell) [bohr]
  5.46954486000000E+00  5.46954486000000E+00  5.46954486000000E+00
 Real space primitive translations (rprimd) [bohr]
  2.73477243000000E+00  2.73477243000000E+00  0.00000000000000E+00
  0.00000000000000E+00  2.73477243000000E+00  2.73477243000000E+00
  2.73477243000000E+00  0.00000000000000E+00  2.73477243000000E+00
 Unitary Cell Volume (ucvol) [Bohr^3]=  4.09066179509997E+01
 Angles (23,13,12)= [degrees]
  6.00000000000000E+01  6.00000000000000E+01  6.00000000000000E+01
 Lengths [Bohr]
  3.86755226051003E+00  3.86755226051003E+00  3.86755226051003E+00
 Stress tensor in cartesian coordinates (strten) [Ha/bohr^3]
 -1.45358911347130E-01  0.00000000000000E+00  0.00000000000000E+00
  0.00000000000000E+00 -1.45358911347130E-01  0.00000000000000E+00
  0.00000000000000E+00  0.00000000000000E+00 -1.45358911347130E-01
 Total energy (etotal) [Ha]= -4.25180882179055E+00
 
 fconv : WARNING -
  ntime=    1 was not enough Broyd/MD steps to converge gradients: 
  max grad (force/stress) = 1.4536E+01 > tolmxf= 5.0000E-05 ha/bohr (free atoms)
 

--- !RelaxConvergenceWarning
message: | 
    
     fconv : WARNING -
      ntime=    1 was not enough Broyd/MD steps to converge gradients: 
      max grad (force/stress) = 1.4536E+01 > tolmxf= 5.0000E-05 ha/bohr (free atoms)

...
================================================================================
 
 ----iterations are completed or convergence reached----
 
 
 === Gap info ===
Not enough states to calculate the band gap.
 Mean square residual over all n,k,spin=   21.080E-10; max=  10.432E-07
  -0.0312 -0.0625  0.0000    1  4.20551E-07 kpt; spin; max resid(k); each band:
  9.88E-15 7.35E-08 4.21E-07 2.07E-07
  -0.0312 -0.1250  0.0000    1  2.13340E-08 kpt; spin; max resid(k); each band:
  3.62E-14 2.02E-10 7.87E-09 2.13E-08
  -0.0625 -0.0938  0.0000    1  3.97168E-08 kpt; spin; max resid(k); each band:
  1.40E-14 2.55E-09 3.97E-08 2.02E-08
  -0.0312 -0.0938  0.0313    1  1.51023E-08 kpt; spin; max resid(k); each band:
  2.80E-14 1.42E-09 1.45E-08 1.51E-08
  -0.0312 -0.1875  0.0000    1  1.60577E-09 kpt; spin; max resid(k); each band:
  6.10E-14 2.56E-12 1.61E-09 7.33E-10
  -0.0625 -0.1562  0.0000    1  2.69778E-08 kpt; spin; max resid(k); each band:
  4.92E-14 2.89E-11 1.31E-08 2.70E-08
  -0.0312 -0.1562  0.0313    1  1.08588E-09 kpt; spin; max resid(k); each band:
  5.91E-14 2.57E-12 2.30E-10 1.09E-09
  -0.0938 -0.1250  0.0000    1  2.26769E-07 kpt; spin; max resid(k); each band:
  1.33E-14 1.20E-09 6.33E-08 2.27E-07
  -0.0625 -0.1250  0.0313    1  6.59405E-09 kpt; spin; max resid(k); each band:
  3.58E-14 1.04E-10 1.12E-10 6.59E-09
  -0.0312 -0.1250  0.0625    1  7.68313E-09 kpt; spin; max resid(k); each band:
  5.91E-14 2.70E-11 2.62E-11 7.68E-09
  -0.0312 -0.2500  0.0000    1  1.45045E-10 kpt; spin; max resid(k); each band:
  8.38E-14 1.45E-13 1.45E-10 8.47E-12
  -0.0625 -0.2188  0.0000    1  4.40532E-10 kpt; spin; max resid(k); each band:
  7.65E-14 2.89E-13 4.41E-10 2.69E-10
  -0.0312 -0.2188  0.0313    1  3.22487E-10 kpt; spin; max resid(k); each band:
  8.57E-14 1.17E-13 4.97E-11 3.22E-10
  -0.0938 -0.1875  0.0000    1  2.56311E-08 kpt; spin; max resid(k); each band:
  5.79E-14 7.07E-12 9.21E-09 2.56E-08
  -0.0625 -0.1875  0.0313    1  6.25821E-10 kpt; spin; max resid(k); each band:
  7.51E-14 1.62E-12 3.91E-10 6.26E-10
  -0.0312 -0.1875  0.0625    1  4.94430E-10 kpt; spin; max resid(k); each band:
  9.36E-14 2.28E-13 1.89E-11 4.94E-10
  -0.1250 -0.1562  0.0000    1  1.28491E-09 kpt; spin; max resid(k); each band:
  1.89E-14 2.83E-10 1.18E-09 1.28E-09
  -0.0938 -0.1562  0.0313    1  1.15315E-09 kpt; spin; max resid(k); each band:
  4.60E-14 3.55E-11 9.89E-10 1.15E-09
  -0.0625 -0.1562  0.0625    1  5.58583E-09 kpt; spin; max resid(k); each band:
  7.65E-14 6.23E-12 8.42E-11 5.59E-09
  -0.0312 -0.1562  0.0938    1  2.78542E-10 kpt; spin; max resid(k); each band:
  9.78E-14 1.25E-13 1.27E-11 2.79E-10
  -0.0312 -0.3125  0.0000    1  3.03622E-11 kpt; spin; max resid(k); each band:
  9.93E-14 1.33E-13 3.04E-11 1.42E-11
  -0.0625 -0.2812  0.0000    1  4.10027E-11 kpt; spin; max resid(k); each band:
  1.03E-13 1.35E-13 4.10E-11 1.06E-11
  -0.0312 -0.2812  0.0313    1  3.56097E-11 kpt; spin; max resid(k); each band:
  1.05E-13 1.42E-13 9.29E-12 3.56E-11
  -0.0938 -0.2500  0.0000    1  2.28316E-10 kpt; spin; max resid(k); each band:
  9.47E-14 1.96E-13 7.67E-11 2.28E-10
  -0.0625 -0.2500  0.0313    1  2.08093E-11 kpt; spin; max resid(k); each band:
  1.04E-13 1.36E-13 1.26E-11 2.08E-11
  -0.0312 -0.2500  0.0625    1  4.05021E-11 kpt; spin; max resid(k); each band:
  1.17E-13 1.40E-13 1.07E-12 4.05E-11
  -0.1250 -0.2188  0.0000    1  1.73500E-09 kpt; spin; max resid(k); each band:
  6.77E-14 5.13E-13 2.03E-10 1.73E-09
  -0.0938 -0.2188  0.0313    1  1.43478E-10 kpt; spin; max resid(k); each band:
  8.84E-14 2.21E-13 6.08E-12 1.43E-10
  -0.0625 -0.2188  0.0625    1  1.08641E-09 kpt; spin; max resid(k); each band:
  1.10E-13 1.89E-13 1.94E-12 1.09E-09
  -0.0312 -0.2188  0.0938    1  6.19648E-10 kpt; spin; max resid(k); each band:
  1.28E-13 1.62E-13 1.71E-12 6.20E-10
  -0.1562 -0.1875  0.0000    1  1.65302E-09 kpt; spin; max resid(k); each band:
  1.72E-14 1.94E-11 1.47E-09 1.65E-09
  -0.1250 -0.1875  0.0313    1  1.57899E-09 kpt; spin; max resid(k); each band:
  5.14E-14 3.93E-12 8.57E-10 1.58E-09
  -0.0938 -0.1875  0.0625    1  6.34943E-11 kpt; spin; max resid(k); each band:
  8.67E-14 1.02E-12 2.86E-12 6.35E-11
  -0.0625 -0.1875  0.0938    1  4.71114E-09 kpt; spin; max resid(k); each band:
  1.13E-13 5.95E-13 1.02E-12 4.71E-09
  -0.0312 -0.1875  0.1250    1  7.12397E-11 kpt; spin; max resid(k); each band:
  1.35E-13 9.91E-14 8.71E-13 7.12E-11
  -0.0312 -0.3750  0.0000    1  4.62703E-12 kpt; spin; max resid(k); each band:
  1.03E-13 1.27E-13 1.89E-12 4.63E-12
  -0.0625 -0.3438  0.0000    1  9.07889E-12 kpt; spin; max resid(k); each band:
  1.12E-13 1.49E-13 9.08E-12 5.59E-12
  -0.0312 -0.3438  0.0313    1  2.16715E-12 kpt; spin; max resid(k); each band:
  1.11E-13 1.43E-13 2.17E-12 1.63E-12
  -0.0938 -0.3125  0.0000    1  2.12913E-10 kpt; spin; max resid(k); each band:
  1.16E-13 1.57E-13 1.01E-11 2.13E-10
  -0.0625 -0.3125  0.0313    1  2.08422E-11 kpt; spin; max resid(k); each band:
  1.19E-13 1.50E-13 2.08E-11 8.92E-12
  -0.0312 -0.3125  0.0625    1  8.22512E-12 kpt; spin; max resid(k); each band:
  1.27E-13 1.60E-13 5.75E-12 8.23E-12
  -0.1250 -0.2812  0.0000    1  4.48227E-11 kpt; spin; max resid(k); each band:
  1.06E-13 1.97E-13 4.48E-11 4.90E-12
  -0.0938 -0.2812  0.0313    1  6.60898E-10 kpt; spin; max resid(k); each band:
  1.18E-13 1.83E-13 1.05E-10 6.61E-10
  -0.0625 -0.2812  0.0625    1  9.15521E-11 kpt; spin; max resid(k); each band:
  1.31E-13 1.36E-13 5.05E-12 9.16E-11
  -0.0312 -0.2812  0.0938    1  1.40991E-11 kpt; spin; max resid(k); each band:
  1.42E-13 1.55E-13 3.37E-13 1.41E-11
  -0.1562 -0.2500  0.0000    1  8.77594E-10 kpt; spin; max resid(k); each band:
  7.76E-14 3.80E-13 5.22E-10 8.78E-10
  -0.1250 -0.2500  0.0313    1  2.34623E-10 kpt; spin; max resid(k); each band:
  1.01E-13 1.54E-13 1.38E-11 2.35E-10
  -0.0938 -0.2500  0.0625    1  2.55860E-11 kpt; spin; max resid(k); each band:
  1.21E-13 1.86E-13 2.52E-12 2.56E-11
  -0.0625 -0.2500  0.0938    1  3.07853E-11 kpt; spin; max resid(k); each band:
  1.40E-13 1.25E-13 9.00E-13 3.08E-11
  -0.0312 -0.2500  0.1250    1  2.28242E-11 kpt; spin; max resid(k); each band:
  1.55E-13 1.37E-13 3.38E-13 2.28E-11
 outwf : prtvol=0 or 1, do not print more k-points.
 
 
   outwf: writing wavefunctions to: opto_WFK with iomode: IO_MODE_FORTRAN_MASTER
 WFK output completed. cpu:  0.06 [s] , wall:  0.15 [s]
 prteigrs : about to open file opto_EIG
 Fermi (or HOMO) energy (hartree) =   1.48679   Average Vxc (hartree)=  -0.66985
 Eigenvalues (hartree) for nkpt= 408  k points:
 kpt#   1, nband=  4, wtk=  0.00146, kpt= -0.0312 -0.0625  0.0000 (reduced coord)
   0.18591    1.44013    1.45952    1.47367
 kpt#   2, nband=  4, wtk=  0.00146, kpt= -0.0312 -0.1250  0.0000 (reduced coord)
   0.20353    1.33302    1.41994    1.43712
 kpt#   3, nband=  4, wtk=  0.00146, kpt= -0.0625 -0.0937  0.0000 (reduced coord)
   0.19474    1.40204    1.42629    1.44084
 kpt#   4, nband=  4, wtk=  0.00293, kpt= -0.0312 -0.0937  0.0313 (reduced coord)
   0.19914    1.36776    1.40820    1.45068
 kpt#   5, nband=  4, wtk=  0.00146, kpt= -0.0312 -0.1875  0.0000 (reduced coord)
   0.23388    1.21242    1.38068    1.39352
 kpt#   6, nband=  4, wtk=  0.00146, kpt= -0.0625 -0.1562  0.0000 (reduced coord)
   0.21658    1.29173    1.38958    1.40596
 kpt#   7, nband=  4, wtk=  0.00293, kpt= -0.0312 -0.1562  0.0313 (reduced coord)
   0.22525    1.25254    1.36907    1.41014
 kpt#   8, nband=  4, wtk=  0.00146, kpt= -0.0937 -0.1250  0.0000 (reduced coord)
   0.20785    1.35816    1.39381    1.40131
 kpt#   9, nband=  4, wtk=  0.00293, kpt= -0.0625 -0.1250  0.0313 (reduced coord)
   0.21222    1.32535    1.37529    1.41662
 kpt#  10, nband=  4, wtk=  0.00293, kpt= -0.0312 -0.1250  0.0625 (reduced coord)
   0.22091    1.28715    1.34499    1.42240
 kpt#  11, nband=  4, wtk=  0.00146, kpt= -0.0312 -0.2500  0.0000 (reduced coord)
   0.27614    1.08939    1.34557    1.35337
 kpt#  12, nband=  4, wtk=  0.00146, kpt= -0.0625 -0.2187  0.0000 (reduced coord)
   0.25089    1.17102    1.35493    1.36317
 kpt#  13, nband=  4, wtk=  0.00293, kpt= -0.0312 -0.2187  0.0313 (reduced coord)
   0.26356    1.13047    1.33376    1.36867
 kpt#  14, nband=  4, wtk=  0.00146, kpt= -0.0937 -0.1875  0.0000 (reduced coord)
   0.23377    1.24816    1.36087    1.36584
 kpt#  15, nband=  4, wtk=  0.00293, kpt= -0.0625 -0.1875  0.0313 (reduced coord)
   0.24235    1.21040    1.33733    1.37896
 kpt#  16, nband=  4, wtk=  0.00293, kpt= -0.0312 -0.1875  0.0625 (reduced coord)
   0.25510    1.17077    1.30726    1.38252
 kpt#  17, nband=  4, wtk=  0.00146, kpt= -0.1250 -0.1562  0.0000 (reduced coord)
   0.22513    1.30584    1.36369    1.36470
 kpt#  18, nband=  4, wtk=  0.00293, kpt= -0.0937 -0.1562  0.0313 (reduced coord)
   0.22946    1.27849    1.34336    1.37940
 kpt#  19, nband=  4, wtk=  0.00293, kpt= -0.0625 -0.1562  0.0625 (reduced coord)
   0.23806    1.24297    1.31267    1.38995
 kpt#  20, nband=  4, wtk=  0.00293, kpt= -0.0312 -0.1562  0.0938 (reduced coord)
   0.25084    1.20445    1.27915    1.39017
 kpt#  21, nband=  4, wtk=  0.00146, kpt= -0.0312 -0.3125  0.0000 (reduced coord)
   0.32896    0.97005    1.31664    1.31998
 kpt#  22, nband=  4, wtk=  0.00146, kpt= -0.0625 -0.2812  0.0000 (reduced coord)
   0.29668    1.04966    1.32401    1.32484
 kpt#  23, nband=  4, wtk=  0.00293, kpt= -0.0312 -0.2812  0.0313 (reduced coord)
   0.31294    1.00991    1.30377    1.33289
 kpt#  24, nband=  4, wtk=  0.00146, kpt= -0.0937 -0.2500  0.0000 (reduced coord)
   0.27180    1.12940    1.32325    1.33081
 kpt#  25, nband=  4, wtk=  0.00293, kpt= -0.0625 -0.2500  0.0313 (reduced coord)
   0.28430    1.09003    1.30353    1.34146
 kpt#  26, nband=  4, wtk=  0.00293, kpt= -0.0312 -0.2500  0.0625 (reduced coord)
   0.30072    1.05075    1.27696    1.34468
 kpt#  27, nband=  4, wtk=  0.00146, kpt= -0.1250 -0.2187  0.0000 (reduced coord)
   0.25492    1.20144    1.32423    1.33459
 kpt#  28, nband=  4, wtk=  0.00293, kpt= -0.0937 -0.2187  0.0313 (reduced coord)
   0.26338    1.16687    1.30393    1.34544
 kpt#  29, nband=  4, wtk=  0.00293, kpt= -0.0625 -0.2187  0.0625 (reduced coord)
   0.27595    1.12921    1.27477    1.35358
 kpt#  30, nband=  4, wtk=  0.00293, kpt= -0.0312 -0.2187  0.0938 (reduced coord)
   0.29248    1.09073    1.24360    1.35309
 kpt#  31, nband=  4, wtk=  0.00146, kpt= -0.1562 -0.1875  0.0000 (reduced coord)
   0.24639    1.24665    1.33350    1.33640
 kpt#  32, nband=  4, wtk=  0.00293, kpt= -0.1250 -0.1875  0.0313 (reduced coord)
   0.25066    1.22636    1.31326    1.34509
 kpt#  33, nband=  4, wtk=  0.00293, kpt= -0.0937 -0.1875  0.0625 (reduced coord)
   0.25915    1.19573    1.28198    1.35496
 kpt#  34, nband=  4, wtk=  0.00293, kpt= -0.0625 -0.1875  0.0938 (reduced coord)
   0.27175    1.16049    1.24781    1.35986
 kpt#  35, nband=  4, wtk=  0.00293, kpt= -0.0312 -0.1875  0.1250 (reduced coord)
   0.28833    1.12301    1.21380    1.35745
 kpt#  36, nband=  4, wtk=  0.00146, kpt= -0.0312 -0.3750  0.0000 (reduced coord)
   0.38978    0.85953    1.29473    1.29518
 kpt#  37, nband=  4, wtk=  0.00146, kpt= -0.0625 -0.3437  0.0000 (reduced coord)
   0.35233    0.93343    1.29199    1.30093
 kpt#  38, nband=  4, wtk=  0.00293, kpt= -0.0312 -0.3437  0.0313 (reduced coord)
   0.37136    0.89626    1.28038    1.30511
 kpt#  39, nband=  4, wtk=  0.00146, kpt= -0.0937 -0.3125  0.0000 (reduced coord)
   0.32079    1.01112    1.28496    1.30554
 kpt#  40, nband=  4, wtk=  0.00293, kpt= -0.0625 -0.3125  0.0313 (reduced coord)
   0.33671    0.97247    1.27463    1.31073
 kpt#  41, nband=  4, wtk=  0.00293, kpt= -0.0312 -0.3125  0.0625 (reduced coord)
   0.35615    0.93524    1.25347    1.31349
 kpt#  42, nband=  4, wtk=  0.00146, kpt= -0.1250 -0.2812  0.0000 (reduced coord)
   0.29639    1.08734    1.27987    1.30889
 kpt#  43, nband=  4, wtk=  0.00293, kpt= -0.0937 -0.2812  0.0313 (reduced coord)
   0.30866    1.05010    1.26857    1.31394
 kpt#  44, nband=  4, wtk=  0.00293, kpt= -0.0625 -0.2812  0.0625 (reduced coord)
   0.32476    1.01237    1.24542    1.32002
 kpt#  45, nband=  4, wtk=  0.00293, kpt= -0.0312 -0.2812  0.0938 (reduced coord)
   0.34447    0.97539    1.21864    1.32001
 kpt#  46, nband=  4, wtk=  0.00146, kpt= -0.1562 -0.2500  0.0000 (reduced coord)
   0.27980    1.15102    1.28561    1.31103
 kpt#  47, nband=  4, wtk=  0.00293, kpt= -0.1250 -0.2500  0.0313 (reduced coord)
   0.28812    1.12142    1.26878    1.31557
 kpt#  48, nband=  4, wtk=  0.00293, kpt= -0.0937 -0.2500  0.0625 (reduced coord)
   0.30047    1.08706    1.24195    1.32247
 kpt#  49, nband=  4, wtk=  0.00293, kpt= -0.0625 -0.2500  0.0938 (reduced coord)
   0.31669    1.05092    1.21196    1.32616
 kpt#  50, nband=  4, wtk=  0.00293, kpt= -0.0312 -0.2500  0.1250 (reduced coord)
   0.33657    1.01451    1.18133    1.32444
 prteigrs : prtvol=0 or 1, do not print more k-points.
 
 Total charge density [el/Bohr^3]
      Maximum=    2.6050E-01  at reduced coord.    0.2593    0.7407    0.7407
 Next maximum=    2.6050E-01  at reduced coord.    0.7407    0.2593    0.7407
      Minimum=    3.6111E-03  at reduced coord.    0.0000    0.0000    0.0000
 Next minimum=    4.8329E-03  at reduced coord.    0.2593    0.2593    0.2222
   Integrated=    8.0000E+00
 
 Cartesian components of stress tensor (hartree/bohr^3)
  sigma(1 1)= -1.45358911E-01  sigma(3 2)=  0.00000000E+00
  sigma(2 2)= -1.45358911E-01  sigma(3 1)=  0.00000000E+00
  sigma(3 3)= -1.45358911E-01  sigma(2 1)=  0.00000000E+00
 
-Cartesian components of stress tensor (GPa)         [Pressure=  4.2766E+03 GPa]
- sigma(1 1)= -4.27660610E+03  sigma(3 2)=  0.00000000E+00
- sigma(2 2)= -4.27660610E+03  sigma(3 1)=  0.00000000E+00
- sigma(3 3)= -4.27660610E+03  sigma(2 1)=  0.00000000E+00
 
== END DATASET(S) ==============================================================
================================================================================
  
 -outvars: echo values of variables after computation  --------
 
 These variables are accessible in NetCDF format (opto_OUT.nc)

            acell      5.4695448600E+00  5.4695448600E+00  5.4695448600E+00 Bohr
              amu      2.80855000E+01
          dilatmx      1.05000000E+00
             ecut      5.00000000E+01 Hartree
           ecutsm      5.00000000E-01 Hartree
           etotal     -4.2518088218E+00
            fcart      0.0000000000E+00  0.0000000000E+00  0.0000000000E+00
                       0.0000000000E+00  0.0000000000E+00  0.0000000000E+00
-          fftalg         312
           ionmov           2
              ixc          11
              kpt     -3.12500000E-02 -6.25000000E-02  0.00000000E+00
                      -3.12500000E-02 -1.25000000E-01  0.00000000E+00
                      -6.25000000E-02 -9.37500000E-02  0.00000000E+00
                      -3.12500000E-02 -9.37500000E-02  3.12500000E-02
                      -3.12500000E-02 -1.87500000E-01  0.00000000E+00
                      -6.25000000E-02 -1.56250000E-01  0.00000000E+00
                      -3.12500000E-02 -1.56250000E-01  3.12500000E-02
                      -9.37500000E-02 -1.25000000E-01  0.00000000E+00
                      -6.25000000E-02 -1.25000000E-01  3.12500000E-02
                      -3.12500000E-02 -1.25000000E-01  6.25000000E-02
                      -3.12500000E-02 -2.50000000E-01  0.00000000E+00
                      -6.25000000E-02 -2.18750000E-01  0.00000000E+00
                      -3.12500000E-02 -2.18750000E-01  3.12500000E-02
                      -9.37500000E-02 -1.87500000E-01  0.00000000E+00
                      -6.25000000E-02 -1.87500000E-01  3.12500000E-02
                      -3.12500000E-02 -1.87500000E-01  6.25000000E-02
                      -1.25000000E-01 -1.56250000E-01  0.00000000E+00
                      -9.37500000E-02 -1.56250000E-01  3.12500000E-02
                      -6.25000000E-02 -1.56250000E-01  6.25000000E-02
                      -3.12500000E-02 -1.56250000E-01  9.37500000E-02
                      -3.12500000E-02 -3.12500000E-01  0.00000000E+00
                      -6.25000000E-02 -2.81250000E-01  0.00000000E+00
                      -3.12500000E-02 -2.81250000E-01  3.12500000E-02
                      -9.37500000E-02 -2.50000000E-01  0.00000000E+00
                      -6.25000000E-02 -2.50000000E-01  3.12500000E-02
                      -3.12500000E-02 -2.50000000E-01  6.25000000E-02
                      -1.25000000E-01 -2.18750000E-01  0.00000000E+00
                      -9.37500000E-02 -2.18750000E-01  3.12500000E-02
                      -6.25000000E-02 -2.18750000E-01  6.25000000E-02
                      -3.12500000E-02 -2.18750000E-01  9.37500000E-02
                      -1.56250000E-01 -1.87500000E-01  0.00000000E+00
                      -1.25000000E-01 -1.87500000E-01  3.12500000E-02
                      -9.37500000E-02 -1.87500000E-01  6.25000000E-02
                      -6.25000000E-02 -1.87500000E-01  9.37500000E-02
                      -3.12500000E-02 -1.87500000E-01  1.25000000E-01
                      -3.12500000E-02 -3.75000000E-01  0.00000000E+00
                      -6.25000000E-02 -3.43750000E-01  0.00000000E+00
                      -3.12500000E-02 -3.43750000E-01  3.12500000E-02
                      -9.37500000E-02 -3.12500000E-01  0.00000000E+00
                      -6.25000000E-02 -3.12500000E-01  3.12500000E-02
                      -3.12500000E-02 -3.12500000E-01  6.25000000E-02
                      -1.25000000E-01 -2.81250000E-01  0.00000000E+00
                      -9.37500000E-02 -2.81250000E-01  3.12500000E-02
                      -6.25000000E-02 -2.81250000E-01  6.25000000E-02
                      -3.12500000E-02 -2.81250000E-01  9.37500000E-02
                      -1.56250000E-01 -2.50000000E-01  0.00000000E+00
                      -1.25000000E-01 -2.50000000E-01  3.12500000E-02
                      -9.37500000E-02 -2.50000000E-01  6.25000000E-02
                      -6.25000000E-02 -2.50000000E-01  9.37500000E-02
                      -3.12500000E-02 -2.50000000E-01  1.25000000E-01
                       outvar_i_n : Printing only first  50 k-points.
         kptrlatt       16  -16   16    -16   16   16    -16  -16   16
          kptrlen      8.75127178E+01
P           mkmem         204
            natom           2
            nband           4
            ngfft          27      27      27
             nkpt         408
             nsym          48
           ntypat           1
              occ      2.000000  2.000000  2.000000  2.000000
          optcell           2
            rprim      5.0000000000E-01  5.0000000000E-01  0.0000000000E+00
                       0.0000000000E+00  5.0000000000E-01  5.0000000000E-01
                       5.0000000000E-01  0.0000000000E+00  5.0000000000E-01
           shiftk      5.00000000E-01  5.00000000E-01  5.00000000E-01
          spgroup         227
           strten     -1.4535891135E-01 -1.4535891135E-01 -1.4535891135E-01
                       0.0000000000E+00  0.0000000000E+00  0.0000000000E+00
           symrel      1  0  0   0  1  0   0  0  1      -1  0  0   0 -1  0   0  0 -1
                       0 -1  1   0 -1  0   1 -1  0       0  1 -1   0  1  0  -1  1  0
                      -1  0  0  -1  0  1  -1  1  0       1  0  0   1  0 -1   1 -1  0
                       0  1 -1   1  0 -1   0  0 -1       0 -1  1  -1  0  1   0  0  1
                      -1  0  0  -1  1  0  -1  0  1       1  0  0   1 -1  0   1  0 -1
                       0 -1  1   1 -1  0   0 -1  0       0  1 -1  -1  1  0   0  1  0
                       1  0  0   0  0  1   0  1  0      -1  0  0   0  0 -1   0 -1  0
                       0  1 -1   0  0 -1   1  0 -1       0 -1  1   0  0  1  -1  0  1
                      -1  0  1  -1  1  0  -1  0  0       1  0 -1   1 -1  0   1  0  0
                       0 -1  0   1 -1  0   0 -1  1       0  1  0  -1  1  0   0  1 -1
                       1  0 -1   0  0 -1   0  1 -1      -1  0  1   0  0  1   0 -1  1
                       0  1  0   0  0  1   1  0  0       0 -1  0   0  0 -1  -1  0  0
                       1  0 -1   0  1 -1   0  0 -1      -1  0  1   0 -1  1   0  0  1
                       0 -1  0   0 -1  1   1 -1  0       0  1  0   0  1 -1  -1  1  0
                      -1  0  1  -1  0  0  -1  1  0       1  0 -1   1  0  0   1 -1  0
                       0  1  0   1  0  0   0  0  1       0 -1  0  -1  0  0   0  0 -1
                       0  0 -1   0  1 -1   1  0 -1       0  0  1   0 -1  1  -1  0  1
                       1 -1  0   0 -1  1   0 -1  0      -1  1  0   0  1 -1   0  1  0
                       0  0  1   1  0  0   0  1  0       0  0 -1  -1  0  0   0 -1  0
                      -1  1  0  -1  0  0  -1  0  1       1 -1  0   1  0  0   1  0 -1
                       0  0  1   0  1  0   1  0  0       0  0 -1   0 -1  0  -1  0  0
                       1 -1  0   0 -1  0   0 -1  1      -1  1  0   0  1  0   0  1 -1
                       0  0 -1   1  0 -1   0  1 -1       0  0  1  -1  0  1   0 -1  1
                      -1  1  0  -1  0  1  -1  0  0       1 -1  0   1  0 -1   1  0  0
            tnons      0.0000000  0.0000000  0.0000000     0.2500000  0.2500000  0.2500000
                       0.0000000  0.0000000  0.0000000     0.2500000  0.2500000  0.2500000
                       0.0000000  0.0000000  0.0000000     0.2500000  0.2500000  0.2500000
                       0.0000000  0.0000000  0.0000000     0.2500000  0.2500000  0.2500000
                       0.0000000  0.0000000  0.0000000     0.2500000  0.2500000  0.2500000
                       0.0000000  0.0000000  0.0000000     0.2500000  0.2500000  0.2500000
                       0.0000000  0.0000000  0.0000000     0.2500000  0.2500000  0.2500000
                       0.0000000  0.0000000  0.0000000     0.2500000  0.2500000  0.2500000
                       0.0000000  0.0000000  0.0000000     0.2500000  0.2500000  0.2500000
                       0.0000000  0.0000000  0.0000000     0.2500000  0.2500000  0.2500000
                       0.0000000  0.0000000  0.0000000     0.2500000  0.2500000  0.2500000
                       0.0000000  0.0000000  0.0000000     0.2500000  0.2500000  0.2500000
                       0.0000000  0.0000000  0.0000000     0.2500000  0.2500000  0.2500000
                       0.0000000  0.0000000  0.0000000     0.2500000  0.2500000  0.2500000
                       0.0000000  0.0000000  0.0000000     0.2500000  0.2500000  0.2500000
                       0.0000000  0.0000000  0.0000000     0.2500000  0.2500000  0.2500000
                       0.0000000  0.0000000  0.0000000     0.2500000  0.2500000  0.2500000
                       0.0000000  0.0000000  0.0000000     0.2500000  0.2500000  0.2500000
                       0.0000000  0.0000000  0.0000000     0.2500000  0.2500000  0.2500000
                       0.0000000  0.0000000  0.0000000     0.2500000  0.2500000  0.2500000
                       0.0000000  0.0000000  0.0000000     0.2500000  0.2500000  0.2500000
                       0.0000000  0.0000000  0.0000000     0.2500000  0.2500000  0.2500000
                       0.0000000  0.0000000  0.0000000     0.2500000  0.2500000  0.2500000
                       0.0000000  0.0000000  0.0000000     0.2500000  0.2500000  0.2500000
           tolvrs      1.00000000E-08
            typat      1  1
              wtk        0.00146    0.00146    0.00146    0.00293    0.00146    0.00146
                         0.00293    0.00146    0.00293    0.00293    0.00146    0.00146
                         0.00293    0.00146    0.00293    0.00293    0.00146    0.00293
                         0.00293    0.00293    0.00146    0.00146    0.00293    0.00146
                         0.00293    0.00293    0.00146    0.00293    0.00293    0.00293
                         0.00146    0.00293    0.00293    0.00293    0.00293    0.00146
                         0.00146    0.00293    0.00146    0.00293    0.00293    0.00146
                         0.00293    0.00293    0.00293    0.00146    0.00293    0.00293
                         0.00293    0.00293
                       outvars : Printing only first  50 k-points.
           xangst      0.0000000000E+00  0.0000000000E+00  0.0000000000E+00
                       7.2358962032E-01  7.2358962032E-01  7.2358962032E-01
            xcart      0.0000000000E+00  0.0000000000E+00  0.0000000000E+00
                       1.3673862150E+00  1.3673862150E+00  1.3673862150E+00
             xred      0.0000000000E+00  0.0000000000E+00  0.0000000000E+00
                       2.5000000000E-01  2.5000000000E-01  2.5000000000E-01
            znucl       14.00000
 
================================================================================
  

================================================================================

 Suggested references for the acknowledgment of ABINIT usage.

 The users of ABINIT have little formal obligations with respect to the ABINIT group
 (those specified in the GNU General Public License, http://www.gnu.org/copyleft/gpl.txt).
 However, it is common practice in the scientific literature,
 to acknowledge the efforts of people that have made the research possible.
 In this spirit, please find below suggested citations of work written by ABINIT developers,
 corresponding to implementations inside of ABINIT that you have used in the present run.
 Note also that it will be of great value to readers of publications presenting these results,
 to read papers enabling them to understand the theoretical formalism and details
 of the ABINIT implementation.
 For information on why they are suggested, see also https://docs.abinit.org/theory/acknowledgments.
-
- [1] Recent developments in the ABINIT software package.
- Computer Phys. Comm. 205, 106 (2016).
- X.Gonze, F.Jollet, F.Abreu Araujo, D.Adams, B.Amadon, T.Applencourt,
- C.Audouze, J.-M.Beuken, J.Bieder, A.Bokhanchuk, E.Bousquet, F.Bruneval
- D.Caliste, M.Cote, F.Dahm, F.Da Pieve, M.Delaveau, M.Di Gennaro,
- B.Dorado, C.Espejo, G.Geneste, L.Genovese, A.Gerossier, M.Giantomassi,
- Y.Gillet, D.R.Hamann, L.He, G.Jomard, J.Laflamme Janssen, S.Le Roux,
- A.Levitt, A.Lherbier, F.Liu, I.Lukacevic, A.Martin, C.Martins,
- M.J.T.Oliveira, S.Ponce, Y.Pouillon, T.Rangel, G.-M.Rignanese,
- A.H.Romero, B.Rousseau, O.Rubel, A.A.Shukri, M.Stankovski, M.Torrent,
- M.J.Van Setten, B.Van Troeye, M.J.Verstraete, D.Waroquier, J.Wiktor,
- B.Xu, A.Zhou, J.W.Zwanziger.
- Comment: the fourth generic paper describing the ABINIT project.
- Note that a version of this paper, that is not formatted for Computer Phys. Comm. 
- is available at https://www.abinit.org/about/ABINIT16.pdf .
- The licence allows the authors to put it on the Web.
- DOI and bibtex: see https://docs.abinit.org/theory/bibliography/#gonze2016
-
- [2] Optimized norm-conserving Vanderbilt pseudopotentials.
- D.R. Hamann, Phys. Rev. B 88, 085117 (2013).
- Comment: Some pseudopotential generated using the ONCVPSP code were used.
- DOI and bibtex: see https://docs.abinit.org/theory/bibliography/#hamann2013
-
- [3] ABINIT: First-principles approach of materials and nanosystem properties.
- Computer Phys. Comm. 180, 2582-2615 (2009).
- X. Gonze, B. Amadon, P.-M. Anglade, J.-M. Beuken, F. Bottin, P. Boulanger, F. Bruneval,
- D. Caliste, R. Caracas, M. Cote, T. Deutsch, L. Genovese, Ph. Ghosez, M. Giantomassi
- S. Goedecker, D.R. Hamann, P. Hermet, F. Jollet, G. Jomard, S. Leroux, M. Mancini, S. Mazevet,
- M.J.T. Oliveira, G. Onida, Y. Pouillon, T. Rangel, G.-M. Rignanese, D. Sangalli, R. Shaltaf,
- M. Torrent, M.J. Verstraete, G. Zerah, J.W. Zwanziger
- Comment: the third generic paper describing the ABINIT project.
- Note that a version of this paper, that is not formatted for Computer Phys. Comm. 
- is available at https://www.abinit.org/about/ABINIT_CPC_v10.pdf .
- The licence allows the authors to put it on the Web.
- DOI and bibtex: see https://docs.abinit.org/theory/bibliography/#gonze2009
-
- [4] A brief introduction to the ABINIT software package.
- Z. Kristallogr. 220, 558-562 (2005).
- X. Gonze, G.-M. Rignanese, M. Verstraete, J.-M. Beuken, Y. Pouillon, R. Caracas, F. Jollet,
- M. Torrent, G. Zerah, M. Mikami, Ph. Ghosez, M. Veithen, J.-Y. Raty, V. Olevano, F. Bruneval,
- L. Reining, R. Godby, G. Onida, D.R. Hamann, and D.C. Allan.
- Comment: the second generic paper describing the ABINIT project. Note that this paper
- should be cited especially if you are using the GW part of ABINIT, as several authors
- of this part are not in the list of authors of the first or third paper.
- The .pdf of the latter paper is available at https://www.abinit.org/about/zfk_0505-06_558-562.pdf.
- Note that it should not redistributed (Copyright by Oldenburg Wissenshaftverlag,
- the licence allows the authors to put it on the Web).
- DOI and bibtex: see https://docs.abinit.org/theory/bibliography/#gonze2005
-
- And optionally:
-
- [5] First-principles computation of material properties: the ABINIT software project. 
- X. Gonze, J.-M. Beuken, R. Caracas, F. Detraux, M. Fuchs, G.-M. Rignanese, L. Sindic,
- M. Verstraete, G. Zerah, F. Jollet, M. Torrent, A. Roy, M. Mikami, Ph. Ghosez, J.-Y. Raty, D.C. Allan.
- Computational Materials Science 25, 478-492 (2002). http://dx.doi.org/10.1016/S0927-0256(02)00325-7
- Comment: the original paper describing the ABINIT project.
- DOI and bibtex : see https://docs.abinit.org/theory/bibliography/#gonze2002
 Proc.   0 individual time (sec): cpu=         39.7  wall=         79.8
 
 Calculation completed.
.Delivered   1 WARNINGs and   0 COMMENTs to log file.

--- !FinalSummary
program: abinit
version: 8.11.13
start_datetime: Fri Jan 03 15:42:46 2020
end_datetime: Fri Jan 03 15:44:06 2020
overall_cpu_time:          79.4
overall_wall_time:         159.6
exit_requested_by_user: no 
timelimit: 0
pseudos: 
    Si  : 45c393525680abc7b25445b8ec62bf83
usepaw: 0
mpi_procs: 2
omp_threads: 1
num_warnings: 1
num_comments: 0
...
