
.Version 8.11.13 of ABINIT 
.(MPI version, prepared for a x86_64_linux_intel14.0 computer) 

.Copyright (C) 1998-2019 ABINIT group . 
 ABINIT comes with ABSOLUTELY NO WARRANTY.
 It is free software, and you are welcome to redistribute it
 under certain conditions (GNU General Public License,
 see ~abinit/COPYING or http://www.gnu.org/copyleft/gpl.txt).

 ABINIT is a project of the Universite Catholique de Louvain,
 Corning Inc. and other collaborators, see ~abinit/doc/developers/contributors.txt .
 Please read https://docs.abinit.org/theory/acknowledgments for suggested
 acknowledgments of the ABINIT effort.
 For more information, see https://www.abinit.org .

.Starting date : Wed 22 Jan 2020.
- ( at 17h54 )
  
- input  file    -> ddb.in
- output file    -> ddb.out
- root for input  files -> ddbi
- root for output files -> ddbo
 
 
 DATASET    1 : space group P1 (#  1); Bravais aP (primitive triclinic)
================================================================================
 Values of the parameters that define the memory need for DATASET  1.
     intxc =       0    ionmov =       0      iscf =       7    lmnmax =       6
     lnmax =       6     mgfft =      30  mpssoang =       3    mqgrid =    3001
     natom =       2  nloc_mem =       1    nspden =       1   nspinor =       1
    nsppol =       1      nsym =       1    n1xccc =    2501    ntypat =       1
    occopt =       1   xclevel =       2
-    mband =           6        mffmem =           1         mkmem =          36
       mpw =         851          nfft =       27000          nkpt =          36
================================================================================
P This job should need less than                      11.946 Mbytes of memory.
  Rough estimation (10% accuracy) of disk space for files :
_ WF disk file :      2.807 Mbytes ; DEN or POT disk file :      0.208 Mbytes.
================================================================================
 
--------------------------------------------------------------------------------
------------- Echo of variables that govern the present computation ------------
--------------------------------------------------------------------------------
-
- outvars: echo of selected default values                                      
-   iomode0 =  0 , fftalg0 =312 , wfoptalg0 =  0
-
- outvars: echo of global parameters not present in the input file              
-  max_nthreads =    0
-
 -outvars: echo values of preprocessed input variables --------
            acell      7.3076524878E+00  7.3076524882E+00  7.3076524889E+00 Bohr
              amu      2.80855000E+01
           diemac      1.20000000E+01
             ecut      1.60000000E+01 Hartree
-          fftalg         312
           istwfk        2    0    3    0    0    0    0    6    0    7
                         0    0    0    0    0    0    0    0    0    0
                         0    0    0    0    0    0    4    0    5    0
                         0    0    0    8    0    9
              ixc          11
           jdtset        1
              kpt      0.00000000E+00  0.00000000E+00  0.00000000E+00
                       2.50000000E-01  0.00000000E+00  0.00000000E+00
                       5.00000000E-01  0.00000000E+00  0.00000000E+00
                       0.00000000E+00  2.50000000E-01  0.00000000E+00
                       2.50000000E-01  2.50000000E-01  0.00000000E+00
                       5.00000000E-01  2.50000000E-01  0.00000000E+00
                      -2.50000000E-01  2.50000000E-01  0.00000000E+00
                       0.00000000E+00  5.00000000E-01  0.00000000E+00
                       2.50000000E-01  5.00000000E-01  0.00000000E+00
                       5.00000000E-01  5.00000000E-01  0.00000000E+00
                       0.00000000E+00  0.00000000E+00  2.50000000E-01
                       2.50000000E-01  0.00000000E+00  2.50000000E-01
                       5.00000000E-01  0.00000000E+00  2.50000000E-01
                      -2.50000000E-01  0.00000000E+00  2.50000000E-01
                       0.00000000E+00  2.50000000E-01  2.50000000E-01
                       2.50000000E-01  2.50000000E-01  2.50000000E-01
                       5.00000000E-01  2.50000000E-01  2.50000000E-01
                      -2.50000000E-01  2.50000000E-01  2.50000000E-01
                       0.00000000E+00  5.00000000E-01  2.50000000E-01
                       2.50000000E-01  5.00000000E-01  2.50000000E-01
                       5.00000000E-01  5.00000000E-01  2.50000000E-01
                      -2.50000000E-01  5.00000000E-01  2.50000000E-01
                       0.00000000E+00 -2.50000000E-01  2.50000000E-01
                       2.50000000E-01 -2.50000000E-01  2.50000000E-01
                       5.00000000E-01 -2.50000000E-01  2.50000000E-01
                      -2.50000000E-01 -2.50000000E-01  2.50000000E-01
                       0.00000000E+00  0.00000000E+00  5.00000000E-01
                       2.50000000E-01  0.00000000E+00  5.00000000E-01
                       5.00000000E-01  0.00000000E+00  5.00000000E-01
                       0.00000000E+00  2.50000000E-01  5.00000000E-01
                       2.50000000E-01  2.50000000E-01  5.00000000E-01
                       5.00000000E-01  2.50000000E-01  5.00000000E-01
                      -2.50000000E-01  2.50000000E-01  5.00000000E-01
                       0.00000000E+00  5.00000000E-01  5.00000000E-01
                       2.50000000E-01  5.00000000E-01  5.00000000E-01
                       5.00000000E-01  5.00000000E-01  5.00000000E-01
         kptrlatt        4    0    0      0    4    0      0    0    4
          kptrlen      2.92306100E+01
P           mkmem          36
            natom           2
            nband           6
           ndtset           1
            ngfft          30      30      30
             nkpt          36
            nstep           0
             nsym           1
           ntypat           1
              occ      2.000000  2.000000  2.000000  2.000000  0.000000  0.000000
           prtvol          -1
            rprim      7.0710678120E-01  7.0710678117E-01  6.9650239756E-11
                       3.1527828871E-11  7.0710678117E-01  7.0710678120E-01
                       7.0710678119E-01 -2.1777182160E-11  7.0710678119E-01
          spgroup           1
           tolvrs      1.00000000E-10
            typat      1  1
              wtk        0.01563    0.03125    0.01563    0.03125    0.03125    0.03125
                         0.03125    0.01563    0.03125    0.01563    0.03125    0.03125
                         0.03125    0.03125    0.03125    0.03125    0.03125    0.03125
                         0.03125    0.03125    0.03125    0.03125    0.03125    0.03125
                         0.03125    0.03125    0.01563    0.03125    0.01563    0.03125
                         0.03125    0.03125    0.03125    0.01563    0.03125    0.01563
           xangst      1.1638012194E-10  8.8647964307E-11 -3.2058171592E-12
                       1.3672062155E+00  1.3672062153E+00  1.3672062157E+00
            xcart      2.1992655779E-10  1.6752037478E-10 -6.0581164630E-12
                       2.5836453144E+00  2.5836453142E+00  2.5836453148E+00
             xred      3.8076535396E-11 -5.6571522372E-12  4.4847551496E-12
                       2.4999999996E-01  2.5000000001E-01  2.5000000000E-01
            znucl       14.00000
 
================================================================================
 
 chkinp: Checking input parameters for consistency, jdtset=   1.
 
 abinit : before driver, prtvol=-1, debugging mode => will skip driver
 
== END DATASET(S) ==============================================================
================================================================================
 
 abinit : before driver, prtvol=-1, debugging mode => will skip outvars


- Timing analysis has been suppressed with timopt=0


 
 abinit : before driver, prtvol=-1, debugging mode => will skip acknowledgments
-
- Proc.   0 individual time (sec): cpu=          0.1  wall=          0.2
 
================================================================================
 
 Calculation completed.
.Delivered   0 WARNINGs and   5 COMMENTs to log file.
+Overall time at end (sec) : cpu=          0.1  wall=          0.2
