--------------------------------------------------------------------------
[[31748,1],0]: A high-performance Open MPI point-to-point messaging module
was unable to find any relevant network interfaces:

Module: OpenFabrics (openib)
  Host: abipy

Another transport will be used instead, although this may result in
lower performance.
--------------------------------------------------------------------------
  ABINIT 8.10.3
  
  Give name for formatted input file: 
tspin_6.in
  Give name for formatted output file:
tspin_6.out
  Give root name for generic input files:
tspin_6i
  Give root name for generic output files:
tspin_6o
  Give root name for generic temporary files:
tspin_6

.Version 8.10.3 of ABINIT 
.(MPI version, prepared for a x86_64_linux_gnu5.4 computer) 

.Copyright (C) 1998-2018 ABINIT group . 
 ABINIT comes with ABSOLUTELY NO WARRANTY.
 It is free software, and you are welcome to redistribute it
 under certain conditions (GNU General Public License,
 see ~abinit/COPYING or http://www.gnu.org/copyleft/gpl.txt).

 ABINIT is a project of the Universite Catholique de Louvain,
 Corning Inc. and other collaborators, see ~abinit/doc/developers/contributors.txt .
 Please read https://docs.abinit.org/theory/acknowledgments for suggested
 acknowledgments of the ABINIT effort.
 For more information, see https://www.abinit.org .

.Starting date : Mon 28 Oct 2019.
- ( at 16h29 )
  

 ++++++++++++++++++++++++++++++++++++++++++++++++++++++++++++++++++++++++++++++

 === Build Information === 
  Version       : 8.10.3
  Build target  : x86_64_linux_gnu5.4
  Build date    : 20191016

 === Compiler Suite === 
  C compiler       : gnu5.4
  C++ compiler     : gnu5.4
  Fortran compiler : gnu5.4
  CFLAGS           :  -g -O2 -mtune=native -march=native
  CXXFLAGS         :  -g -O2 -mtune=native -march=native
  FCFLAGS          :  -g -ffree-line-length-none  -fopenmp
  FC_LDFLAGS       : 

 === Optimizations === 
  Debug level        : basic
  Optimization level : standard
  Architecture       : unknown_unknown

 === Multicore === 
  Parallel build : yes
  Parallel I/O   : yes
  openMP support : yes
  GPU support    : no

 === Connectors / Fallbacks === 
  Connectors on : yes
  Fallbacks on  : yes
  DFT flavor    : none
  FFT flavor    : fftw3
  LINALG flavor : atlas
  MATH flavor   : none
  TIMER flavor  : abinit
  TRIO flavor   : netcdf

 === Experimental features === 
  Bindings            : @enable_bindings@
  Exports             : no
  GW double-precision : no

 ++++++++++++++++++++++++++++++++++++++++++++++++++++++++++++++++++++++++++++++


 ++++++++++++++++++++++++++++++++++++++++++++++++++++++++++++++++++++++++++++++
 Default optimizations:
   -O2 -mtune=native -march=native


 Optimizations for 43_ptgroups:
   -O0


 ++++++++++++++++++++++++++++++++++++++++++++++++++++++++++++++++++++++++++++++


 ++++++++++++++++++++++++++++++++++++++++++++++++++++++++++++++++++++++++++++++
 CPP options activated during the build:

                    CC_GNU                   CXX_GNU                    FC_GNU
 
 HAVE_FC_ALLOCATABLE_DT...             HAVE_FC_ASYNC         HAVE_FC_BACKTRACE
 
  HAVE_FC_COMMAND_ARGUMENT      HAVE_FC_COMMAND_LINE        HAVE_FC_CONTIGUOUS
 
           HAVE_FC_CPUTIME              HAVE_FC_EXIT             HAVE_FC_FLUSH
 
             HAVE_FC_GAMMA            HAVE_FC_GETENV   HAVE_FC_IEEE_EXCEPTIONS
 
          HAVE_FC_INT_QUAD             HAVE_FC_IOMSG     HAVE_FC_ISO_C_BINDING
 
  HAVE_FC_ISO_FORTRAN_2008        HAVE_FC_LONG_LINES        HAVE_FC_MOVE_ALLOC
 
           HAVE_FC_PRIVATE         HAVE_FC_PROTECTED         HAVE_FC_STREAM_IO
 
            HAVE_FC_SYSTEM                  HAVE_FFT            HAVE_FFT_FFTW3
 
              HAVE_FFT_MPI           HAVE_FFT_SERIAL          HAVE_FORTRAN2003
 
        HAVE_LIBPAW_ABINIT      HAVE_LIBTETRA_ABINIT               HAVE_LINALG
 
        HAVE_LINALG_SERIAL                  HAVE_MPI                 HAVE_MPI2
 
       HAVE_MPI_IALLREDUCE        HAVE_MPI_IALLTOALL       HAVE_MPI_IALLTOALLV
 
        HAVE_MPI_INTEGER16               HAVE_MPI_IO HAVE_MPI_TYPE_CREATE_S...
 
               HAVE_NETCDF           HAVE_NETCDF_MPI         HAVE_OMP_COLLAPSE
 
               HAVE_OPENMP             HAVE_OS_LINUX         HAVE_TIMER_ABINIT
 
              USE_MACROAVE                                                      
 ++++++++++++++++++++++++++++++++++++++++++++++++++++++++++++++++++++++++++++++

- input  file    -> tspin_6.in
- output file    -> tspin_6.out
- root for input  files -> tspin_6i
- root for output files -> tspin_6o


--- !WARNING
src_file: m_nctk.F90
src_line: 572
message: |
    netcdf lib does not support MPI-IO and: NetCDF: Parallel operation on file opened for non-parallel access
...

  Asked to delete not existent file: __TMP_FILE__

--- !WARNING
src_file: m_nctk.F90
src_line: 592
message: |
    The netcdf library does not support parallel IO, see message above
    Abinit won't be able to produce files in parallel e.g. when paral_kgb==1 is used.
    Action: install a netcdf4+HDF5 library with MPI-IO support.
...

-instrng: 44 lines of input have been read from file tspin_6.in


 Please give name of formatted atomic psp file
 iofn2 : for atom type 1, psp file is ../../../../../Psps_for_tests/83bi.paw
  read the values zionpsp= 15.0 , pspcod=   7 , lmax=   2
 2 0.                                   : shape_type,rshape                      

 inpspheads: deduce mpsang = 3, n1xccc = 1.
 invars1 : treat image number: 1

 symlatt : the Bravais lattice is cP (primitive cubic)
  xred   is defined in input file
 ingeo: takes atomic coordinates from input array xred

 symlatt : the Bravais lattice is cP (primitive cubic)

 symlatt : the Bravais lattice is cP (primitive cubic)

--- !COMMENT
src_file: m_symfind.F90
src_line: 815
message: |
    The Bravais lattice determined only from the primitive
    vectors, bravais(1)=  7, is more symmetric
    than the real one, iholohedry=  1, obtained by taking into
    account the atomic positions. Start deforming the primitive vector set.
...


 symlatt : the Bravais lattice is hR (rhombohedral)

--- !COMMENT
src_file: m_symfind.F90
src_line: 824
message: |
    The Bravais lattice determined from modified primitive
    vectors, bravais(1)=  5, has a lower symmetry than before,
    but is still more symmetric than the real one, iholohedry=  1
    obtained by taking into account the atomic positions.
...


 symlatt : the Bravais lattice is mC (one-face-centered monoclinic)

--- !COMMENT
src_file: m_symfind.F90
src_line: 824
message: |
    The Bravais lattice determined from modified primitive
    vectors, bravais(1)=  2, has a lower symmetry than before,
    but is still more symmetric than the real one, iholohedry=  1
    obtained by taking into account the atomic positions.
...


 symlatt : the Bravais lattice is aP (primitive triclinic)
 symspgr : spgroup=   1  P1   (=C1^1)
 ingeo: angdeg(1:3)=   90.00000000   90.00000000   90.00000000
 invars1 : treat image number: 1

 symlatt : the Bravais lattice is cP (primitive cubic)
  xred   is defined in input file
 ingeo: takes atomic coordinates from input array xred

 symlatt : the Bravais lattice is cP (primitive cubic)

 symlatt : the Bravais lattice is cP (primitive cubic)

--- !COMMENT
src_file: m_symfind.F90
src_line: 815
message: |
    The Bravais lattice determined only from the primitive
    vectors, bravais(1)=  7, is more symmetric
    than the real one, iholohedry=  1, obtained by taking into
    account the atomic positions. Start deforming the primitive vector set.
...


 symlatt : the Bravais lattice is hR (rhombohedral)

--- !COMMENT
src_file: m_symfind.F90
src_line: 824
message: |
    The Bravais lattice determined from modified primitive
    vectors, bravais(1)=  5, has a lower symmetry than before,
    but is still more symmetric than the real one, iholohedry=  1
    obtained by taking into account the atomic positions.
...


 symlatt : the Bravais lattice is mC (one-face-centered monoclinic)

--- !COMMENT
src_file: m_symfind.F90
src_line: 824
message: |
    The Bravais lattice determined from modified primitive
    vectors, bravais(1)=  2, has a lower symmetry than before,
    but is still more symmetric than the real one, iholohedry=  1
    obtained by taking into account the atomic positions.
...


 symlatt : the Bravais lattice is aP (primitive triclinic)
 symspgr : spgroup=   1  P1   (=C1^1)
 ingeo: angdeg(1:3)=   90.00000000   90.00000000   90.00000000
 chkneu : initialized the occupation numbers for occopt=    7, spin-unpolarized or antiferromagnetic case :
  2.00  2.00  2.00  2.00  2.00  2.00  2.00  1.00  0.00  0.00  0.00  0.00
 chkneu : initialized the occupation numbers for occopt=    7, spin-unpolarized or antiferromagnetic case :
  1.00  1.00  1.00  1.00  1.00  1.00  1.00  1.00  1.00  1.00  1.00  1.00
  1.00  1.00  1.00  0.00  0.00  0.00  0.00  0.00  0.00  0.00  0.00  0.00
npfft, npband, npspinor and npkpt:     1    1    1    2

--- !WARNING
src_file: m_mpinfo.F90
src_line: 2525
message: |
    nproc_kpt=2 >= nkpt=1* nsppol=1
    The number of processors is larger than nkpt*nsppol. This is a waste.
...

mpi_setup: mkmem  undefined in the input file.Use default mkmem  = nkpt
 mpi_setup: With nkpt_me=1 and mkmem  = 1, ground state wf handled in core.
mpi_setup: mkqmem undefined in the input file.Use default mkqmem = nkpt
 mpi_setup: With nkpt_me=1 and mkqmem = 1, ground state wf handled in core.
mpi_setup: mk1mem undefined in the input file.Use default mk1mem = nkpt
 mpi_setup: With nkpt_me=1 and mk1mem = 1, ground state wf handled in core.

--- !WARNING
src_file: m_mpi_setup.F90
src_line: 699
message: |
    Your number of spins*k-points (=1) will not distribute correctly
    with the current number of processors (=2).
    You will leave some empty.
    YOU ARE STRONGLY ADVICED TO ACTIVATE AUTOMATIC PARALLELIZATION!
    PUT "AUTOPARAL=1" IN THE INPUT FILE.
...

getng is called for the coarse grid:
 For input ecut=  8.000000E+00 best grid ngfft=      27      27      27
       max ecut=  8.339816E+00

 ==== FFT mesh ====
  FFT mesh divisions ........................    27   27   27
  Augmented FFT divisions ...................    27   27   27
  FFT algorithm .............................   312
  FFT cache size ............................    16
 getmpw: optimal value of mpw= 523
getng is called for the fine grid:
 Using supplied coarse mesh as initial guess.
 For input ecut=  1.500000E+01 best grid ngfft=      36      36      36
       max ecut=  1.598876E+01

 ==== FFT mesh ====
  FFT mesh divisions ........................    36   36   36
  Augmented FFT divisions ...................    37   37   36
  FFT algorithm .............................   312
  FFT cache size ............................    16
npfft, npband, npspinor and npkpt:     1    1    1    2

--- !WARNING
src_file: m_mpinfo.F90
src_line: 2525
message: |
    nproc_kpt=2 >= nkpt=1* nsppol=1
    The number of processors is larger than nkpt*nsppol. This is a waste.
...

mpi_setup: mkmem  undefined in the input file.Use default mkmem  = nkpt
 mpi_setup: With nkpt_me=1 and mkmem  = 1, ground state wf handled in core.
mpi_setup: mkqmem undefined in the input file.Use default mkqmem = nkpt
 mpi_setup: With nkpt_me=1 and mkqmem = 1, ground state wf handled in core.
mpi_setup: mk1mem undefined in the input file.Use default mk1mem = nkpt
 mpi_setup: With nkpt_me=1 and mk1mem = 1, ground state wf handled in core.

--- !WARNING
src_file: m_mpi_setup.F90
src_line: 699
message: |
    Your number of spins*k-points (=1) will not distribute correctly
    with the current number of processors (=2).
    You will leave some empty.
    YOU ARE STRONGLY ADVICED TO ACTIVATE AUTOMATIC PARALLELIZATION!
    PUT "AUTOPARAL=1" IN THE INPUT FILE.
...

getng is called for the coarse grid:
 For input ecut=  8.000000E+00 best grid ngfft=      27      27      27
       max ecut=  8.339816E+00

 ==== FFT mesh ====
  FFT mesh divisions ........................    27   27   27
  Augmented FFT divisions ...................    27   27   27
  FFT algorithm .............................   312
  FFT cache size ............................    16
 getmpw: optimal value of mpw= 1045
getng is called for the fine grid:
 Using supplied coarse mesh as initial guess.
 For input ecut=  1.500000E+01 best grid ngfft=      36      36      36
       max ecut=  1.598876E+01

 ==== FFT mesh ====
  FFT mesh divisions ........................    36   36   36
  Augmented FFT divisions ...................    37   37   36
  FFT algorithm .............................   312
  FFT cache size ............................    16

 DATASET    1 : space group P1 (#  1); Bravais aP (primitive triclinic)

 getdim_nloc : deduce lmnmax  =  18, lnmax  =   6,
                      lmnmaxso=  18, lnmaxso=   6.
memory : analysis of memory needs
================================================================================
 Values of the parameters that define the memory need for DATASET  1.
     intxc =       0    ionmov =       0      iscf =      17    lmnmax =      18
     lnmax =       6     mgfft =      27  mpssoang =       3    mqgrid =    3001
     natom =       1  nloc_mem =       2    nspden =       1   nspinor =       1
    nsppol =       1      nsym =       1    n1xccc =       1    ntypat =       1
    occopt =       7   xclevel =       1
-    mband =          12        mffmem =           1         mkmem =           1
       mpw =         523          nfft =       19683          nkpt =           1
 PAW method is used; the additional fine FFT grid is defined by:
   mgfftf=        36    nfftf =     46656
================================================================================
P This job should need less than                      12.024 Mbytes of memory.
  Rough estimation (10% accuracy) of disk space for files :
_ WF disk file :      0.098 Mbytes ; DEN or POT disk file :      0.358 Mbytes.
================================================================================

 Biggest array : pawfgrtab%gylm(gr), with      2.7217 MBytes.
 memana : allocated an array of      2.722 Mbytes, for testing purposes.
 memana: allocated      12.024Mbytes, for testing purposes. 
 The job will continue.

 DATASET    2 : space group P1 (#  1); Bravais aP (primitive triclinic)

 getdim_nloc : deduce lmnmax  =  18, lnmax  =   6,
                      lmnmaxso=  18, lnmaxso=   6.
memory : analysis of memory needs
================================================================================
 Values of the parameters that define the memory need for DATASET  2.
     intxc =       0    ionmov =       0      iscf =      17    lmnmax =      18
     lnmax =       6     mgfft =      27  mpssoang =       3    mqgrid =    3001
     natom =       1  nloc_mem =       2    nspden =       1   nspinor =       2
    nsppol =       1      nsym =       1    n1xccc =       1    ntypat =       1
    occopt =       7   xclevel =       1
-    mband =          24        mffmem =           1         mkmem =           1
       mpw =        1045          nfft =       19683          nkpt =           1
 PAW method is used; the additional fine FFT grid is defined by:
   mgfftf=        36    nfftf =     46656
================================================================================
P This job should need less than                      14.687 Mbytes of memory.
  Rough estimation (10% accuracy) of disk space for files :
_ WF disk file :      0.385 Mbytes ; DEN or POT disk file :      0.358 Mbytes.
================================================================================

 Biggest array : pawfgrtab%gylm(gr), with      2.7217 MBytes.
 memana : allocated an array of      2.722 Mbytes, for testing purposes.
 memana: allocated      14.687Mbytes, for testing purposes. 
 The job will continue.
--------------------------------------------------------------------------------
------------- Echo of variables that govern the present computation ------------
--------------------------------------------------------------------------------
-
- outvars: echo of selected default values                                      
-   iomode0 =  0 , fftalg0 =312 , wfoptalg0 = 10
-
- outvars: echo of global parameters not present in the input file              
-  max_nthreads =    1
-
 -outvars: echo values of preprocessed input variables --------
 
 These variables are accessible in NetCDF format (tspin_6o_OUT.nc)

            acell      1.0000000000E+01  1.0000000000E+01  1.0000000000E+01 Bohr
              amu      2.08980370E+02
             ecut      8.00000000E+00 Hartree
-          fftalg         312
           istwfk1       2
           istwfk2       1
              ixc           7
           jdtset        1    2
           kptopt           4
         kptrlatt        1    0    0      0    1    0      0    0    1
          kptrlen      1.00000000E+04
P           mkmem           1
            natom           1
            nband1         12
            nband2         24
           ndtset           2
            ngfft          27      27      27
          ngfftdg          36      36      36
             nkpt           1
          nspinor1          1
          nspinor2          2
            nstep          20
             nsym           1
           ntypat           1
              occ1     2.000000  2.000000  2.000000  2.000000  2.000000  2.000000
                       2.000000  1.000000  0.000000  0.000000  0.000000  0.000000
              occ2     1.000000  1.000000  1.000000  1.000000  1.000000  1.000000
                       1.000000  1.000000  1.000000  1.000000  1.000000  1.000000
                       1.000000  1.000000  1.000000  0.000000  0.000000  0.000000
                       0.000000  0.000000  0.000000  0.000000  0.000000  0.000000
           occopt           7
-      paral_atom           0
        pawcpxocc1          1
        pawcpxocc2          2
        pawecutdg      1.50000000E+01 Hartree
        pawspnorb1          0
        pawspnorb2          1
          spgroup           1
           toldfe      1.00000000E-07 Hartree
           tsmear      2.00000000E-02 Hartree
            typat      1
           useylm           1
            znucl       83.00000

================================================================================

 chkinp: Checking input parameters for consistency, jdtset=   1.

 chkinp: Checking input parameters for consistency, jdtset=   2.
 DATA TYPE INFORMATION: 
 REAL:      Data type name: REAL(DP) 
            Kind value:      8
            Precision:      15
            Smallest nonnegligible quantity relative to 1:  0.22204460E-15
            Smallest positive number:                       0.22250739-307
            Largest representable number:                   0.17976931+309
 INTEGER:   Data type name: INTEGER(default) 
            Kind value: 4
            Bit size:   32
            Largest representable number: 2147483647
 LOGICAL:   Data type name: LOGICAL 
            Kind value: 4
 CHARACTER: Data type name: CHARACTER             Kind value: 1

  ==== OpenMP parallelism is ON ====
- Max_threads:       1
- Num_threads:       1
- Num_procs:         2
- Dynamic:           F
- Nested:            F
 
  ==== Using MPI-2 specifications ==== 
  MPI-IO support is ON
  xmpi_tag_ub ................   2147483647
  xmpi_bsize_ch ..............            1
  xmpi_bsize_int .............            4
  xmpi_bsize_sp ..............            4
  xmpi_bsize_dp ..............            8
  xmpi_bsize_spc .............            8
  xmpi_bsize_dpc .............           16
  xmpio_bsize_frm ............            4
  xmpi_address_kind ..........            8
  xmpi_offset_kind ...........            8
  MPI_WTICK ..................    9.9999999999999995E-007

================================================================================
== DATASET  1 ==================================================================
-   nproc =    2   -> not optimal: autoparal keyword recommended in input file


--- !COMMENT
src_file: m_xgScalapack.F90
src_line: 251
message: |
    xgScalapack in auto mode
...


 getdim_nloc : deduce lmnmax  =  18, lnmax  =   6,
                      lmnmaxso=  18, lnmaxso=   6.
 Exchange-correlation functional for the present dataset will be:
  LDA: Perdew-Wang 92 LSD fit to Ceperley-Alder data - ixc=7
 Citation for XC functional:
  J.P.Perdew and Y.Wang, PRB 45, 13244 (1992)

 Unit cell volume ucvol=  1.0000000E+03 bohr^3
 Angles (23,13,12)=  9.00000000E+01  9.00000000E+01  9.00000000E+01 degrees

 Coarse grid specifications (used for wave-functions):

 getcut: wavevector=  0.0000  0.0000  0.0000  ngfft=  27  27  27
         ecut(hartree)=      8.000   => boxcut(ratio)=   2.04204

 Fine grid specifications (used for densities):

 getcut: wavevector=  0.0000  0.0000  0.0000  ngfft=  36  36  36
         ecut(hartree)=     15.000   => boxcut(ratio)=   2.06487
 kpgio: loop on k-points done in parallel
- pspini: atom type   1  psp file is ../../../../../Psps_for_tests/83bi.paw
- pspatm: opening atomic psp file    ../../../../../Psps_for_tests/83bi.paw
- Paw atomic data for element Bi - Generated by AtomPAW + AtomPAW2Abinit v3.2.1
- 83.00000  15.00000  20080829                znucl, zion, pspdat
    7    7    2    0      1509   0.00000      pspcod,pspxc,lmax,lloc,mmax,r2well
 Pseudopotential format is: paw4
 basis_size (lnmax)=  6 (lmn_size= 18), orbitals=   0   0   1   1   2   2
 Spheres core radius: rc_sph= 2.60648143
 4 radial meshes are used:
  - mesh 1: r(i)=AA*[exp(BB*(i-1))-1], size=1509 , AA= 0.83004E-04 BB= 0.68893E-02
  - mesh 2: r(i)=AA*[exp(BB*(i-1))-1], size=1504 , AA= 0.83004E-04 BB= 0.68893E-02
  - mesh 3: r(i)=AA*[exp(BB*(i-1))-1], size=1583 , AA= 0.83004E-04 BB= 0.68893E-02
  - mesh 4: r(i)=AA*[exp(BB*(i-1))-1], size=1699 , AA= 0.83004E-04 BB= 0.68893E-02
 Shapefunction is SIN type: shapef(r)=[sin(pi*r/rshp)/(pi*r/rshp)]**2
 Radius for shape functions = sphere core radius
 Radial grid used for partial waves is grid 1
 Radial grid used for projectors is grid  2
 Radial grid used for (t)core density is grid 3
 Radial grid used for Vloc is grid 4
 Radial grid used for pseudo valence density is grid 4
 Compensation charge density is taken into account in XC energy/potential
 beta integral value:      -0.829046E+02
 pspatm: atomic psp has been read  and splines computed

   7.73482506E+02                                ecore*ucvol(ha*bohr**3)
 ==== Info on pseudopotentials ====
  PAW calculation
  Number of pseudopotentials ..    1
  Number of types of atoms   ..    1
  Scalar calculation (no spin-orbit term)
  Nonlocal part applied using real spherical harmonics
  Max number of non-local projectors over l and type   2
  Highest angular momentum +1 .......   3
  Max number of (l,n)   components ..   6
  Max number of (l,m,n) components ..  18

 Pseudo-Core Charge Info: 
   Number of radial points for pseudo-core charge ..    1
   XC core-correction treatment (optnlxccc) ........    1
   Radius for pseudo-core charge for each type ..... 

  - Atom type    1 has pseudo-core radius ..  4.4919

 Info on the Q-grid used for form factors in spline form: 
   Number of q-points for radial functions ffspl ..   3001
   Number of q-points for vlspl ...................   3001
   vloc is computed in Reciprocal Space

  XC functional for type 1 is 7

 wfconv:    12 bands initialized randomly with npw=   523, for ikpt=     1
_setup2: Arith. and geom. avg. npw (full set) are    1045.000    1045.000
 initro: for itypat=  1, take pseudo charge density from pp file

================================================================================
 FFT (fine) grid used in SCF cycle:

 getcut: wavevector=  0.0000  0.0000  0.0000  ngfft=  36  36  36
         ecut(hartree)=     15.000   => boxcut(ratio)=   2.06487
 average electrostatic smooth potential [Ha] , [eV]      0.000000        0.000000

 ****** Psp strength Dij in Ha (atom      1) *****
   1.39657  -3.21055   0.00000   0.00000   0.00000  -0.00000  -0.00000  -0.00000   0.00000  -0.00000   0.00000  -0.00000 ...
  -3.21055   7.31550  -0.00000  -0.00000  -0.00000   0.00000   0.00000   0.00000   0.00000  -0.00000   0.00000  -0.00000 ...
   0.00000  -0.00000   0.27391   0.00000  -0.00000  -1.27012  -0.00000   0.00000   0.00000   0.00000  -0.00000  -0.00000 ...
   0.00000  -0.00000   0.00000   0.27391   0.00000  -0.00000  -1.27012  -0.00000  -0.00000   0.00000   0.00000   0.00000 ...
   0.00000  -0.00000  -0.00000   0.00000   0.27391   0.00000  -0.00000  -1.27012   0.00000  -0.00000  -0.00000   0.00000 ...
  -0.00000   0.00000  -1.27012  -0.00000   0.00000   5.82071   0.00000  -0.00000  -0.00000  -0.00000   0.00000   0.00000 ...
  -0.00000   0.00000  -0.00000  -1.27012  -0.00000   0.00000   5.82071   0.00000   0.00000  -0.00000  -0.00000  -0.00000 ...
  -0.00000   0.00000   0.00000  -0.00000  -1.27012  -0.00000   0.00000   5.82071  -0.00000   0.00000   0.00000  -0.00000 ...
   0.00000   0.00000   0.00000  -0.00000   0.00000  -0.00000   0.00000  -0.00000  -0.95062  -0.00000  -0.00000  -0.00000 ...
  -0.00000  -0.00000   0.00000   0.00000  -0.00000  -0.00000  -0.00000   0.00000  -0.00000  -0.95062   0.00000   0.00000 ...
   0.00000   0.00000  -0.00000   0.00000  -0.00000   0.00000  -0.00000   0.00000  -0.00000   0.00000  -0.95060  -0.00000 ...
  -0.00000  -0.00000  -0.00000   0.00000   0.00000   0.00000  -0.00000  -0.00000  -0.00000   0.00000  -0.00000  -0.95062 ...
   ...  only 12  components have been written...


 ITER STEP NUMBER     1
 vtorho : nnsclo_now=2, note that nnsclo,dbl_nnsclo,istep=0 0 1
 newocc: new Fermi energy is      -0.071764 , with nelect=     15.000000
  Number of bissection calls =  49
 newocc : computed new occ. numbers for occopt= 7 , spin-unpolarized case.
 2.000 2.000 2.000 2.000 2.000 2.000 1.320 1.302 0.378 0.000 0.000 0.000
mkrho: echo density (plane-wave part only)
 Total charge density [el/Bohr^3]
      Maximum=    1.5350E-01  at reduced coord.    0.9259    0.0000    0.8889
      Minimum=    4.2835E-06  at reduced coord.    0.3704    0.4074    0.4815
   Integrated=    8.0208E+00

 *********** RHOIJ (atom   1) **********
   2.09157   0.08187   0.01270  -0.00078   0.02549   0.00314   0.00323   0.00653   0.01342  -0.00547  -0.03521  -0.00017 ...
   0.08187   0.01095   0.00250   0.00609   0.00002  -0.00119  -0.00008  -0.00100  -0.01911   0.02274  -0.08452  -0.05969 ...
   0.01270   0.00250   1.29424   0.03210  -0.39591   0.00453  -0.00015   0.00183   0.00352   0.00839  -0.00218  -0.00644 ...
  -0.00078   0.00609   0.03210   1.48596   0.09161   0.00209   0.00630   0.00168  -0.00306  -0.00783   0.01619   0.00571 ...
   0.02549   0.00002  -0.39591   0.09161   0.60047   0.00142   0.00037   0.00375   0.00055   0.00312  -0.03600  -0.02604 ...
   0.00314  -0.00119   0.00453   0.00209   0.00142   0.00028   0.00005   0.00025   0.00920  -0.00205   0.01418   0.00917 ...
   0.00323  -0.00008  -0.00015   0.00630   0.00037   0.00005   0.00005   0.00007   0.00112  -0.00603   0.00183   0.00174 ...
   0.00653  -0.00100   0.00183   0.00168   0.00375   0.00025   0.00007   0.00028   0.00389  -0.00863   0.01102   0.00875 ...
   0.01342  -0.01911   0.00352  -0.00306   0.00055   0.00920   0.00112   0.00389   1.99227   0.00085  -0.00139  -0.00173 ...
  -0.00547   0.02274   0.00839  -0.00783   0.00312  -0.00205  -0.00603  -0.00863   0.00085   1.98738   0.00724   0.00516 ...
  -0.03521  -0.08452  -0.00218   0.01619  -0.03600   0.01418   0.00183   0.01102  -0.00139   0.00724   1.97357  -0.01158 ...
  -0.00017  -0.05969  -0.00644   0.00571  -0.02604   0.00917   0.00174   0.00875  -0.00173   0.00516  -0.01158   1.98238 ...
   ...  only 12  components have been written...

 Total charge density [el/Bohr^3]
      Maximum=    6.8973E-01  at reduced coord.    0.0000    0.0000    0.0000
      Minimum=    3.5944E-06  at reduced coord.    0.3889    0.4167    0.5000
   Integrated=    1.5000E+01
 ETOT  1  -72.102865545434    -7.210E+01 1.587E-01 1.512E-01
 scprqt: <Vxc>= -1.6881892E-01 hartree

Simple mixing update:
  residual square of the potential :   8.4718328688898781E-007
  rhotov : is_hybrid_ncpp= F
  rhotov : n3xccc=       46656
 scfcv_core: previous iteration took 00 [s]
 average electrostatic smooth potential [Ha] , [eV]      0.000000        0.000000

 ****** Psp strength Dij in Ha (atom      1) *****
   1.39974  -3.21533  -0.00037   0.00028   0.00053   0.00191  -0.00154  -0.00293   0.00004   0.00007  -0.00006  -0.00014 ...
  -3.21533   7.32592   0.00070  -0.00055  -0.00108  -0.00440   0.00347   0.00687  -0.00018  -0.00017   0.00044   0.00043 ...
  -0.00037   0.00070   0.27488   0.00009   0.00034  -1.27431  -0.00043  -0.00129   0.00017   0.00007   0.00003   0.00001 ...
   0.00028  -0.00055   0.00009   0.27455  -0.00033  -0.00043  -1.27225   0.00149   0.00001  -0.00006   0.00007   0.00017 ...
   0.00053  -0.00108   0.00034  -0.00033   0.27546  -0.00129   0.00149  -1.27612  -0.00005   0.00001  -0.00009   0.00009 ...
   0.00191  -0.00440  -1.27431  -0.00043  -0.00129   5.83896   0.00234   0.00662  -0.00062  -0.00035  -0.00008  -0.00002 ...
  -0.00154   0.00347  -0.00043  -1.27225   0.00149   0.00234   5.82628  -0.00819  -0.00002   0.00014  -0.00037  -0.00065 ...
  -0.00293   0.00687  -0.00129   0.00149  -1.27612   0.00662  -0.00819   5.84744   0.00012  -0.00002   0.00034  -0.00039 ...
   0.00004  -0.00018   0.00017   0.00001  -0.00005  -0.00062  -0.00002   0.00012  -0.93915   0.00139   0.00160  -0.00017 ...
   0.00007  -0.00017   0.00007  -0.00006   0.00001  -0.00035   0.00014  -0.00002   0.00139  -0.93476  -0.00006  -0.00140 ...
  -0.00006   0.00044   0.00003   0.00007  -0.00009  -0.00008  -0.00037   0.00034   0.00160  -0.00006  -0.93455   0.00076 ...
  -0.00014   0.00043   0.00001   0.00017   0.00009  -0.00002  -0.00065  -0.00039  -0.00017  -0.00140   0.00076  -0.93676 ...
   ...  only 12  components have been written...


 ITER STEP NUMBER     2
 vtorho : nnsclo_now=2, note that nnsclo,dbl_nnsclo,istep=0 0 2
 newocc: new Fermi energy is      -0.073916 , with nelect=     15.000000
  Number of bissection calls =  49
 newocc : computed new occ. numbers for occopt= 7 , spin-unpolarized case.
 2.000 2.000 2.000 2.000 2.000 2.000 1.259 0.918 0.822 0.000 0.000 0.000
mkrho: echo density (plane-wave part only)
 Total charge density [el/Bohr^3]
      Maximum=    1.4642E-01  at reduced coord.    0.1111    0.0741    0.0000
      Minimum=    1.8607E-06  at reduced coord.    0.4815    0.5185    0.4815
   Integrated=    8.1407E+00

 *********** RHOIJ (atom   1) **********
   1.97203   0.01027  -0.00335   0.00211   0.00587   0.00056   0.00045   0.00015  -0.00008  -0.00050  -0.00323  -0.00232 ...
   0.01027   0.00008  -0.00026   0.00037   0.00064   0.00001   0.00000   0.00001  -0.00224  -0.00005  -0.00478  -0.00353 ...
  -0.00335  -0.00026   1.06672   0.00641   0.16491   0.00046  -0.00005   0.00016  -0.00146  -0.00097  -0.00225  -0.00109 ...
   0.00211   0.00037   0.00641   0.94823  -0.09631  -0.00003   0.00038   0.00002   0.00005   0.00140  -0.00018  -0.00105 ...
   0.00587   0.00064   0.16491  -0.09631   1.30403   0.00028  -0.00004   0.00055   0.00100   0.00212  -0.00457  -0.00279 ...
   0.00056   0.00001   0.00046  -0.00003   0.00028   0.00000  -0.00000   0.00000  -0.00093  -0.00054  -0.00083  -0.00018 ...
   0.00045   0.00000  -0.00005   0.00038  -0.00004  -0.00000   0.00000   0.00000   0.00004   0.00082  -0.00002  -0.00073 ...
   0.00015   0.00001   0.00016   0.00002   0.00055   0.00000   0.00000   0.00000   0.00084   0.00056  -0.00083  -0.00085 ...
  -0.00008  -0.00224  -0.00146   0.00005   0.00100  -0.00093   0.00004   0.00084   1.99268  -0.00008   0.00001   0.00005 ...
  -0.00050  -0.00005  -0.00097   0.00140   0.00212  -0.00054   0.00082   0.00056  -0.00008   1.99256  -0.00007  -0.00000 ...
  -0.00323  -0.00478  -0.00225  -0.00018  -0.00457  -0.00083  -0.00002  -0.00083   0.00001  -0.00007   1.99254   0.00003 ...
  -0.00232  -0.00353  -0.00109  -0.00105  -0.00279  -0.00018  -0.00073  -0.00085   0.00005  -0.00000   0.00003   1.99262 ...
   ...  only 12  components have been written...

 Total charge density [el/Bohr^3]
      Maximum=    6.9984E-01  at reduced coord.    0.0000    0.0000    0.0000
      Minimum=    1.1066E-06  at reduced coord.    0.5000    0.5000    0.5000
   Integrated=    1.5000E+01
 ETOT  2  -72.193092966493    -9.023E-02 1.979E-03 1.282E-01
 scprqt: <Vxc>= -1.6776259E-01 hartree

 Pulay update with  1 previous iterations:
 mixing of old trial potential : alpha(m:m-4)=  0.529      0.471
  rhotov : is_hybrid_ncpp= F
  rhotov : n3xccc=       46656
 scfcv_core: previous iteration took 00 [s]
 average electrostatic smooth potential [Ha] , [eV]      0.000000        0.000000

 ****** Psp strength Dij in Ha (atom      1) *****
   1.39809  -3.21184  -0.00020   0.00017   0.00031   0.00107  -0.00097  -0.00176  -0.00004   0.00004   0.00002  -0.00006 ...
  -3.21184   7.31662   0.00040  -0.00034  -0.00065  -0.00247   0.00217   0.00413  -0.00002  -0.00010   0.00021   0.00022 ...
  -0.00020   0.00040   0.27455   0.00005   0.00010  -1.27262  -0.00025  -0.00037   0.00009   0.00005   0.00001   0.00001 ...
   0.00017  -0.00034   0.00005   0.27442  -0.00014  -0.00025  -1.27158   0.00069   0.00001  -0.00003   0.00004   0.00009 ...
   0.00031  -0.00065   0.00010  -0.00014   0.27474  -0.00037   0.00069  -1.27313  -0.00002   0.00001  -0.00005   0.00005 ...
   0.00107  -0.00247  -1.27262  -0.00025  -0.00037   5.82996   0.00140   0.00187  -0.00035  -0.00022  -0.00002  -0.00002 ...
  -0.00097   0.00217  -0.00025  -1.27158   0.00069   0.00140   5.82325  -0.00390  -0.00002   0.00004  -0.00023  -0.00037 ...
  -0.00176   0.00413  -0.00037   0.00069  -1.27313   0.00187  -0.00390   5.83202   0.00003  -0.00002   0.00019  -0.00024 ...
  -0.00004  -0.00002   0.00009   0.00001  -0.00002  -0.00035  -0.00002   0.00003  -0.93903   0.00063   0.00051  -0.00009 ...
   0.00004  -0.00010   0.00005  -0.00003   0.00001  -0.00022   0.00004  -0.00002   0.00063  -0.93714  -0.00003  -0.00046 ...
   0.00002   0.00021   0.00001   0.00004  -0.00005  -0.00002  -0.00023   0.00019   0.00051  -0.00003  -0.93691   0.00034 ...
  -0.00006   0.00022   0.00001   0.00009   0.00005  -0.00002  -0.00037  -0.00024  -0.00009  -0.00046   0.00034  -0.93779 ...
   ...  only 12  components have been written...


 ITER STEP NUMBER     3
 vtorho : nnsclo_now=1, note that nnsclo,dbl_nnsclo,istep=0 0 3
 newocc: new Fermi energy is      -0.073062 , with nelect=     15.000000
  Number of bissection calls =  48
 newocc : computed new occ. numbers for occopt= 7 , spin-unpolarized case.
 2.000 2.000 2.000 2.000 2.000 2.000 1.120 0.960 0.920 0.000 0.000 0.000
mkrho: echo density (plane-wave part only)
 Total charge density [el/Bohr^3]
      Maximum=    1.4339E-01  at reduced coord.    0.1111    0.0741    0.0000
      Minimum=    1.9629E-06  at reduced coord.    0.4815    0.5185    0.4815
   Integrated=    8.1373E+00

 *********** RHOIJ (atom   1) **********
   1.97009   0.00901  -0.00252   0.00123   0.00383   0.00044   0.00021  -0.00016   0.00003   0.00013  -0.00162  -0.00118 ...
   0.00901   0.00005   0.00003   0.00020   0.00005   0.00000   0.00000  -0.00000  -0.00176  -0.00025   0.00016   0.00015 ...
  -0.00252   0.00003   1.08203   0.00208   0.07153   0.00007  -0.00000  -0.00001  -0.00003   0.00030   0.00015  -0.00024 ...
   0.00123   0.00020   0.00208   1.02625  -0.04035  -0.00000   0.00009   0.00006  -0.00013   0.00005  -0.00019  -0.00014 ...
   0.00383   0.00005   0.07153  -0.04035   1.19762  -0.00000   0.00006   0.00003   0.00055  -0.00009  -0.00065  -0.00031 ...
   0.00044   0.00000   0.00007  -0.00000  -0.00000   0.00000   0.00000  -0.00000  -0.00032   0.00009  -0.00016  -0.00009 ...
   0.00021   0.00000  -0.00000   0.00009   0.00006   0.00000   0.00000   0.00000  -0.00007   0.00028  -0.00008  -0.00035 ...
  -0.00016  -0.00000  -0.00001   0.00006   0.00003  -0.00000   0.00000   0.00000   0.00049  -0.00006   0.00007  -0.00021 ...
   0.00003  -0.00176  -0.00003  -0.00013   0.00055  -0.00032  -0.00007   0.00049   1.99263   0.00000  -0.00004   0.00002 ...
   0.00013  -0.00025   0.00030   0.00005  -0.00009   0.00009   0.00028  -0.00006   0.00000   1.99260   0.00001   0.00000 ...
  -0.00162   0.00016   0.00015  -0.00019  -0.00065  -0.00016  -0.00008   0.00007  -0.00004   0.00001   1.99259   0.00002 ...
  -0.00118   0.00015  -0.00024  -0.00014  -0.00031  -0.00009  -0.00035  -0.00021   0.00002   0.00000   0.00002   1.99264 ...
   ...  only 12  components have been written...

 Total charge density [el/Bohr^3]
      Maximum=    7.0076E-01  at reduced coord.    0.0000    0.0000    0.0000
      Minimum=    1.1344E-06  at reduced coord.    0.5000    0.5000    0.5000
   Integrated=    1.5000E+01
 ETOT  3  -72.191614830043     1.478E-03 3.333E-05 3.318E-02
 scprqt: <Vxc>= -1.6725732E-01 hartree

 Pulay update with  2 previous iterations:
 mixing of old trial potential : alpha(m:m-4)=   1.19     -0.389      0.196
  rhotov : is_hybrid_ncpp= F
  rhotov : n3xccc=       46656
 scfcv_core: previous iteration took 00 [s]
 average electrostatic smooth potential [Ha] , [eV]      0.000000        0.000000

 ****** Psp strength Dij in Ha (atom      1) *****
   1.39618  -3.20696  -0.00006   0.00009   0.00012   0.00033  -0.00049  -0.00069  -0.00004   0.00002   0.00003  -0.00002 ...
  -3.20696   7.30268   0.00013  -0.00017  -0.00027  -0.00076   0.00110   0.00164   0.00002  -0.00005   0.00007   0.00009 ...
  -0.00006   0.00013   0.27425   0.00002   0.00002  -1.27079  -0.00011  -0.00008   0.00003   0.00002  -0.00000   0.00000 ...
   0.00009  -0.00017   0.00002   0.27421  -0.00005  -0.00011  -1.27041   0.00027   0.00000   0.00000   0.00002   0.00003 ...
   0.00012  -0.00027   0.00002  -0.00005   0.27429  -0.00008   0.00027  -1.27083   0.00001   0.00000  -0.00001   0.00003 ...
   0.00033  -0.00076  -1.27079  -0.00011  -0.00008   5.81889   0.00062   0.00038  -0.00011  -0.00011   0.00002  -0.00001 ...
  -0.00049   0.00110  -0.00011  -1.27041   0.00027   0.00062   5.81637  -0.00153  -0.00001  -0.00004  -0.00011  -0.00012 ...
  -0.00069   0.00164  -0.00008   0.00027  -1.27083   0.00038  -0.00153   5.81886  -0.00004  -0.00001   0.00006  -0.00012 ...
  -0.00004   0.00002   0.00003   0.00000   0.00001  -0.00011  -0.00001  -0.00004  -0.93749   0.00025   0.00017  -0.00004 ...
   0.00002  -0.00005   0.00002   0.00000   0.00000  -0.00011  -0.00004  -0.00001   0.00025  -0.93687  -0.00001  -0.00015 ...
   0.00003   0.00007  -0.00000   0.00002  -0.00001   0.00002  -0.00011   0.00006   0.00017  -0.00001  -0.93678   0.00013 ...
  -0.00002   0.00009   0.00000   0.00003   0.00003  -0.00001  -0.00012  -0.00012  -0.00004  -0.00015   0.00013  -0.93703 ...
   ...  only 12  components have been written...


 ITER STEP NUMBER     4
 vtorho : nnsclo_now=1, note that nnsclo,dbl_nnsclo,istep=0 0 4
 newocc: new Fermi energy is      -0.071607 , with nelect=     15.000000
  Number of bissection calls =  49
 newocc : computed new occ. numbers for occopt= 7 , spin-unpolarized case.
 2.000 2.000 2.000 2.000 2.000 2.000 1.049 0.982 0.969 0.000 0.000 0.000
mkrho: echo density (plane-wave part only)
 Total charge density [el/Bohr^3]
      Maximum=    1.4134E-01  at reduced coord.    0.1111    0.0741    0.0000
      Minimum=    2.0519E-06  at reduced coord.    0.4815    0.4815    0.4815
   Integrated=    8.1361E+00

 *********** RHOIJ (atom   1) **********
   1.96834   0.00851  -0.00088   0.00082   0.00200   0.00039   0.00015  -0.00020  -0.00055   0.00021  -0.00010  -0.00008 ...
   0.00851   0.00004   0.00018   0.00011  -0.00018   0.00000   0.00000  -0.00000  -0.00144   0.00008   0.00084   0.00058 ...
  -0.00088   0.00018   1.08853   0.00027   0.02970   0.00003  -0.00000   0.00000  -0.00019   0.00008  -0.00004  -0.00004 ...
   0.00082   0.00011   0.00027   1.06917  -0.01499  -0.00000   0.00005   0.00004  -0.00009   0.00015  -0.00012  -0.00014 ...
   0.00200  -0.00018   0.02970  -0.01499   1.13854   0.00000   0.00004   0.00001   0.00032  -0.00012  -0.00015  -0.00001 ...
   0.00039   0.00000   0.00003  -0.00000   0.00000   0.00000   0.00000  -0.00000  -0.00023   0.00001  -0.00013  -0.00002 ...
   0.00015   0.00000  -0.00000   0.00005   0.00004   0.00000   0.00000  -0.00000  -0.00004   0.00019  -0.00005  -0.00021 ...
  -0.00020  -0.00000   0.00000   0.00004   0.00001  -0.00000  -0.00000   0.00000   0.00025  -0.00004   0.00005  -0.00011 ...
  -0.00055  -0.00144  -0.00019  -0.00009   0.00032  -0.00023  -0.00004   0.00025   1.99258   0.00000   0.00000   0.00000 ...
   0.00021   0.00008   0.00008   0.00015  -0.00012   0.00001   0.00019  -0.00004   0.00000   1.99255   0.00001   0.00000 ...
  -0.00010   0.00084  -0.00004  -0.00012  -0.00015  -0.00013  -0.00005   0.00005   0.00000   0.00001   1.99250  -0.00001 ...
  -0.00008   0.00058  -0.00004  -0.00014  -0.00001  -0.00002  -0.00021  -0.00011   0.00000   0.00000  -0.00001   1.99255 ...
   ...  only 12  components have been written...

 Total charge density [el/Bohr^3]
      Maximum=    7.0105E-01  at reduced coord.    0.0000    0.0000    0.0000
      Minimum=    1.1649E-06  at reduced coord.    0.5000    0.5000    0.5000
   Integrated=    1.5000E+01
 ETOT  4  -72.191295409500     3.194E-04 2.768E-05 6.761E-03
 scprqt: <Vxc>= -1.6632572E-01 hartree

 Pulay update with  3 previous iterations:
 mixing of old trial potential : alpha(m:m-4)=   2.30      -1.61      0.326     -0.160E-01
  rhotov : is_hybrid_ncpp= F
  rhotov : n3xccc=       46656
 scfcv_core: previous iteration took 00 [s]
 average electrostatic smooth potential [Ha] , [eV]      0.000000        0.000000

 ****** Psp strength Dij in Ha (atom      1) *****
   1.39365  -3.20029   0.00004  -0.00001  -0.00004  -0.00021   0.00003   0.00023   0.00000   0.00000   0.00000  -0.00000 ...
  -3.20029   7.28374  -0.00008   0.00001   0.00008   0.00050  -0.00008  -0.00054   0.00000  -0.00000  -0.00001  -0.00000 ...
   0.00004  -0.00008   0.27385   0.00000   0.00000  -1.26831  -0.00000   0.00000  -0.00002  -0.00000  -0.00001  -0.00000 ...
  -0.00001   0.00001   0.00000   0.27385  -0.00000  -0.00000  -1.26832  -0.00000  -0.00000   0.00002  -0.00000  -0.00002 ...
  -0.00004   0.00008   0.00000  -0.00000   0.27383   0.00000  -0.00000  -1.26825   0.00002  -0.00000   0.00001  -0.00000 ...
  -0.00021   0.00050  -1.26831  -0.00000   0.00000   5.80389   0.00001  -0.00003   0.00007   0.00001   0.00003   0.00000 ...
   0.00003  -0.00008  -0.00000  -1.26832  -0.00000   0.00001   5.80399   0.00002   0.00000  -0.00006   0.00001   0.00007 ...
   0.00023  -0.00054   0.00000  -0.00000  -1.26825  -0.00003   0.00002   5.80355  -0.00006   0.00000  -0.00004   0.00001 ...
   0.00000   0.00000  -0.00002  -0.00000   0.00002   0.00007   0.00000  -0.00006  -0.93500  -0.00000  -0.00001  -0.00000 ...
   0.00000  -0.00000  -0.00000   0.00002  -0.00000   0.00001  -0.00006   0.00000  -0.00000  -0.93506  -0.00000   0.00001 ...
   0.00000  -0.00001  -0.00001  -0.00000   0.00001   0.00003   0.00001  -0.00004  -0.00001  -0.00000  -0.93510  -0.00000 ...
  -0.00000  -0.00000  -0.00000  -0.00002  -0.00000   0.00000   0.00007   0.00001  -0.00000   0.00001  -0.00000  -0.93501 ...
   ...  only 12  components have been written...


 ITER STEP NUMBER     5
 vtorho : nnsclo_now=1, note that nnsclo,dbl_nnsclo,istep=0 0 5
 newocc: new Fermi energy is      -0.069188 , with nelect=     15.000000
  Number of bissection calls =  48
 newocc : computed new occ. numbers for occopt= 7 , spin-unpolarized case.
 2.000 2.000 2.000 2.000 2.000 2.000 1.001 0.999 0.999 0.000 0.000 0.000
mkrho: echo density (plane-wave part only)
 Total charge density [el/Bohr^3]
      Maximum=    1.4043E-01  at reduced coord.    0.0741    0.0741    0.9259
      Minimum=    2.1243E-06  at reduced coord.    0.4815    0.4815    0.4815
   Integrated=    8.1339E+00

 *********** RHOIJ (atom   1) **********
   1.96386   0.00776   0.00076   0.00025  -0.00024   0.00026   0.00007  -0.00018  -0.00049  -0.00003   0.00028   0.00014 ...
   0.00776   0.00003   0.00030   0.00004  -0.00036   0.00000   0.00000  -0.00000  -0.00107  -0.00003   0.00074   0.00045 ...
   0.00076   0.00030   1.09366   0.00002   0.00014   0.00010  -0.00000   0.00001  -0.00003  -0.00010  -0.00025  -0.00017 ...
   0.00025   0.00004   0.00002   1.09368  -0.00005  -0.00000   0.00011   0.00001   0.00004   0.00026  -0.00012  -0.00022 ...
  -0.00024  -0.00036   0.00014  -0.00005   1.09538   0.00001   0.00001   0.00011   0.00011   0.00006   0.00001  -0.00015 ...
   0.00026   0.00000   0.00010  -0.00000   0.00001   0.00000   0.00000  -0.00000  -0.00004  -0.00003  -0.00009  -0.00005 ...
   0.00007   0.00000  -0.00000   0.00011   0.00001   0.00000   0.00000  -0.00000   0.00001   0.00009  -0.00004  -0.00009 ...
  -0.00018  -0.00000   0.00001   0.00001   0.00011  -0.00000  -0.00000   0.00000   0.00005   0.00001   0.00002  -0.00005 ...
  -0.00049  -0.00107  -0.00003   0.00004   0.00011  -0.00004   0.00001   0.00005   1.99248  -0.00000   0.00001   0.00000 ...
  -0.00003  -0.00003  -0.00010   0.00026   0.00006  -0.00003   0.00009   0.00001  -0.00000   1.99246   0.00001   0.00001 ...
   0.00028   0.00074  -0.00025  -0.00012   0.00001  -0.00009  -0.00004   0.00002   0.00001   0.00001   1.99242   0.00001 ...
   0.00014   0.00045  -0.00017  -0.00022  -0.00015  -0.00005  -0.00009  -0.00005   0.00000   0.00001   0.00001   1.99247 ...
   ...  only 12  components have been written...

 Total charge density [el/Bohr^3]
      Maximum=    7.0146E-01  at reduced coord.    0.0000    0.0000    0.0000
      Minimum=    1.2002E-06  at reduced coord.    0.5000    0.5000    0.5000
   Integrated=    1.5000E+01
 ETOT  5  -72.191264643539     3.077E-05 7.998E-06 2.174E-04
 scprqt: <Vxc>= -1.6432255E-01 hartree

 Pulay update with  4 previous iterations:
 mixing of old trial potential : alpha(m:m-4)=   1.20     -0.357      0.198     -0.328E-01 -0.750E-02
  rhotov : is_hybrid_ncpp= F
  rhotov : n3xccc=       46656
 scfcv_core: previous iteration took 00 [s]
 average electrostatic smooth potential [Ha] , [eV]      0.000000        0.000000

 ****** Psp strength Dij in Ha (atom      1) *****
   1.39318  -3.19888   0.00002  -0.00001  -0.00003  -0.00013   0.00003   0.00017  -0.00000  -0.00000   0.00000   0.00000 ...
  -3.19888   7.27967  -0.00005   0.00001   0.00006   0.00032  -0.00008  -0.00039   0.00001   0.00000  -0.00001  -0.00001 ...
   0.00002  -0.00005   0.27379  -0.00000  -0.00000  -1.26789   0.00001   0.00002  -0.00001  -0.00000  -0.00001  -0.00000 ...
  -0.00001   0.00001  -0.00000   0.27380   0.00001   0.00001  -1.26792  -0.00003  -0.00000   0.00001  -0.00000  -0.00001 ...
  -0.00003   0.00006  -0.00000   0.00001   0.27378   0.00002  -0.00003  -1.26783   0.00001  -0.00000   0.00001  -0.00000 ...
  -0.00013   0.00032  -1.26789   0.00001   0.00002   5.80105  -0.00004  -0.00011   0.00005   0.00001   0.00002   0.00000 ...
   0.00003  -0.00008   0.00001  -1.26792  -0.00003  -0.00004   5.80127   0.00015   0.00000  -0.00003   0.00001   0.00005 ...
   0.00017  -0.00039   0.00002  -0.00003  -1.26783  -0.00011   0.00015   5.80076  -0.00003   0.00000  -0.00003   0.00001 ...
  -0.00000   0.00001  -0.00001  -0.00000   0.00001   0.00005   0.00000  -0.00003  -0.93394  -0.00002  -0.00002   0.00000 ...
  -0.00000   0.00000  -0.00000   0.00001  -0.00000   0.00001  -0.00003   0.00000  -0.00002  -0.93403   0.00000   0.00002 ...
   0.00000  -0.00001  -0.00001  -0.00000   0.00001   0.00002   0.00001  -0.00003  -0.00002   0.00000  -0.93408  -0.00001 ...
   0.00000  -0.00001  -0.00000  -0.00001  -0.00000   0.00000   0.00005   0.00001   0.00000   0.00002  -0.00001  -0.93398 ...
   ...  only 12  components have been written...


 ITER STEP NUMBER     6
 vtorho : nnsclo_now=1, note that nnsclo,dbl_nnsclo,istep=0 0 6
 newocc: new Fermi energy is      -0.068446 , with nelect=     15.000000
  Number of bissection calls =  48
 newocc : computed new occ. numbers for occopt= 7 , spin-unpolarized case.
 2.000 2.000 2.000 2.000 2.000 2.000 1.002 1.000 0.997 0.000 0.000 0.000
mkrho: echo density (plane-wave part only)
 Total charge density [el/Bohr^3]
      Maximum=    1.4041E-01  at reduced coord.    0.9259    0.0741    0.9259
      Minimum=    2.1833E-06  at reduced coord.    0.4815    0.4815    0.4815
   Integrated=    8.1365E+00

 *********** RHOIJ (atom   1) **********
   1.95969   0.00563   0.00003  -0.00011  -0.00001  -0.00015  -0.00002   0.00012  -0.00004  -0.00004   0.00012   0.00009 ...
   0.00563   0.00002   0.00009   0.00001  -0.00011  -0.00000  -0.00000   0.00000  -0.00004  -0.00006   0.00010   0.00011 ...
   0.00003   0.00009   1.09307  -0.00021  -0.00178   0.00023   0.00000  -0.00001   0.00010  -0.00000   0.00001  -0.00001 ...
  -0.00011   0.00001  -0.00021   1.09438   0.00137   0.00000   0.00023   0.00000  -0.00003  -0.00001  -0.00001   0.00004 ...
  -0.00001  -0.00011  -0.00178   0.00137   1.09232  -0.00001   0.00000   0.00026  -0.00013   0.00001  -0.00005   0.00003 ...
  -0.00015  -0.00000   0.00023   0.00000  -0.00001   0.00000   0.00000  -0.00000   0.00005   0.00000   0.00002  -0.00000 ...
  -0.00002  -0.00000   0.00000   0.00023   0.00000   0.00000   0.00000   0.00000  -0.00001  -0.00002  -0.00000   0.00003 ...
   0.00012   0.00000  -0.00001   0.00000   0.00026  -0.00000   0.00000   0.00000  -0.00006   0.00000  -0.00002   0.00002 ...
  -0.00004  -0.00004   0.00010  -0.00003  -0.00013   0.00005  -0.00001  -0.00006   1.99242  -0.00001  -0.00000   0.00000 ...
  -0.00004  -0.00006  -0.00000  -0.00001   0.00001   0.00000  -0.00002   0.00000  -0.00001   1.99243   0.00000   0.00000 ...
   0.00012   0.00010   0.00001  -0.00001  -0.00005   0.00002  -0.00000  -0.00002  -0.00000   0.00000   1.99242  -0.00000 ...
   0.00009   0.00011  -0.00001   0.00004   0.00003  -0.00000   0.00003   0.00002   0.00000   0.00000  -0.00000   1.99242 ...
   ...  only 12  components have been written...

 Total charge density [el/Bohr^3]
      Maximum=    7.0219E-01  at reduced coord.    0.0000    0.0000    0.0000
      Minimum=    1.2662E-06  at reduced coord.    0.5000    0.5000    0.5000
   Integrated=    1.5000E+01
 ETOT  6  -72.191288729815    -2.409E-05 6.443E-07 1.268E-04
 scprqt: <Vxc>= -1.6342599E-01 hartree

 Pulay update with  5 previous iterations:
 mixing of old trial potential : alpha(m:m-4)=  0.605      0.542     -0.295      0.163     -0.134E-01
  rhotov : is_hybrid_ncpp= F
  rhotov : n3xccc=       46656
 scfcv_core: previous iteration took 00 [s]
 average electrostatic smooth potential [Ha] , [eV]      0.000000        0.000000

 ****** Psp strength Dij in Ha (atom      1) *****
   1.39305  -3.19847   0.00001  -0.00000  -0.00001  -0.00005   0.00001   0.00007  -0.00000  -0.00000   0.00000   0.00000 ...
  -3.19847   7.27848  -0.00002   0.00000   0.00002   0.00012  -0.00003  -0.00016   0.00000   0.00000  -0.00001  -0.00000 ...
   0.00001  -0.00002   0.27378  -0.00000  -0.00000  -1.26777   0.00000   0.00001  -0.00001  -0.00000  -0.00000  -0.00000 ...
  -0.00000   0.00000  -0.00000   0.27378   0.00000   0.00000  -1.26778  -0.00001  -0.00000   0.00000  -0.00000  -0.00001 ...
  -0.00001   0.00002  -0.00000   0.00000   0.27377   0.00001  -0.00001  -1.26774   0.00000  -0.00000   0.00000  -0.00000 ...
  -0.00005   0.00012  -1.26777   0.00000   0.00001   5.80029  -0.00002  -0.00005   0.00002   0.00000   0.00001   0.00000 ...
   0.00001  -0.00003   0.00000  -1.26778  -0.00001  -0.00002   5.80037   0.00006   0.00000  -0.00001   0.00000   0.00002 ...
   0.00007  -0.00016   0.00001  -0.00001  -1.26774  -0.00005   0.00006   5.80014  -0.00001   0.00000  -0.00001   0.00000 ...
  -0.00000   0.00000  -0.00001  -0.00000   0.00000   0.00002   0.00000  -0.00001  -0.93374  -0.00001  -0.00001   0.00000 ...
  -0.00000   0.00000  -0.00000   0.00000  -0.00000   0.00000  -0.00001   0.00000  -0.00001  -0.93378   0.00000   0.00001 ...
   0.00000  -0.00001  -0.00000  -0.00000   0.00000   0.00001   0.00000  -0.00001  -0.00001   0.00000  -0.93383  -0.00000 ...
   0.00000  -0.00000  -0.00000  -0.00001  -0.00000   0.00000   0.00002   0.00000   0.00000   0.00001  -0.00000  -0.93375 ...
   ...  only 12  components have been written...


 ITER STEP NUMBER     7
 vtorho : nnsclo_now=1, note that nnsclo,dbl_nnsclo,istep=0 0 7
 newocc: new Fermi energy is      -0.068273 , with nelect=     15.000000
  Number of bissection calls =  50
 newocc : computed new occ. numbers for occopt= 7 , spin-unpolarized case.
 2.000 2.000 2.000 2.000 2.000 2.000 1.001 1.000 0.999 0.000 0.000 0.000
mkrho: echo density (plane-wave part only)
 Total charge density [el/Bohr^3]
      Maximum=    1.4034E-01  at reduced coord.    0.9259    0.0741    0.9259
      Minimum=    2.1738E-06  at reduced coord.    0.4815    0.4815    0.4815
   Integrated=    8.1364E+00

 *********** RHOIJ (atom   1) **********
   1.95927   0.00560   0.00003  -0.00002   0.00005  -0.00005   0.00000   0.00005  -0.00001  -0.00000   0.00005   0.00006 ...
   0.00560   0.00002   0.00000   0.00001  -0.00002  -0.00000   0.00000   0.00000   0.00001  -0.00000   0.00002   0.00006 ...
   0.00003   0.00000   1.09266  -0.00010  -0.00041   0.00026   0.00000  -0.00000   0.00003  -0.00000   0.00002   0.00000 ...
  -0.00002   0.00001  -0.00010   1.09278   0.00042   0.00000   0.00026  -0.00000  -0.00000  -0.00001  -0.00000   0.00003 ...
   0.00005  -0.00002  -0.00041   0.00042   1.09369  -0.00000  -0.00000   0.00027  -0.00003   0.00001  -0.00003   0.00001 ...
  -0.00005  -0.00000   0.00026   0.00000  -0.00000   0.00000   0.00000  -0.00000   0.00002   0.00000   0.00001   0.00000 ...
   0.00000   0.00000   0.00000   0.00026  -0.00000   0.00000   0.00000   0.00000   0.00000  -0.00001   0.00000   0.00002 ...
   0.00005   0.00000  -0.00000  -0.00000   0.00027  -0.00000   0.00000   0.00000  -0.00002   0.00000  -0.00001   0.00001 ...
  -0.00001   0.00001   0.00003  -0.00000  -0.00003   0.00002   0.00000  -0.00002   1.99242   0.00000   0.00001   0.00000 ...
  -0.00000  -0.00000  -0.00000  -0.00001   0.00001   0.00000  -0.00001   0.00000   0.00000   1.99242   0.00000  -0.00000 ...
   0.00005   0.00002   0.00002  -0.00000  -0.00003   0.00001   0.00000  -0.00001   0.00001   0.00000   1.99241   0.00000 ...
   0.00006   0.00006   0.00000   0.00003   0.00001   0.00000   0.00002   0.00001   0.00000  -0.00000   0.00000   1.99242 ...
   ...  only 12  components have been written...

 Total charge density [el/Bohr^3]
      Maximum=    7.0219E-01  at reduced coord.    0.0000    0.0000    0.0000
      Minimum=    1.2550E-06  at reduced coord.    0.5000    0.5000    0.5000
   Integrated=    1.5000E+01
 ETOT  7  -72.191295672434    -6.943E-06 4.342E-08 6.009E-05
 scprqt: <Vxc>= -1.6311408E-01 hartree

 Pulay update with  6 previous iterations:
 mixing of old trial potential : alpha(m:m-4)=   2.77      -1.63     -0.138      0.185E-01 -0.261E-01
  rhotov : is_hybrid_ncpp= F
  rhotov : n3xccc=       46656
 scfcv_core: previous iteration took 00 [s]
 average electrostatic smooth potential [Ha] , [eV]      0.000000        0.000000

 ****** Psp strength Dij in Ha (atom      1) *****
   1.39268  -3.19737  -0.00001   0.00000   0.00001   0.00003  -0.00001  -0.00004   0.00000   0.00000  -0.00000  -0.00000 ...
  -3.19737   7.27529   0.00001  -0.00000  -0.00002  -0.00008   0.00002   0.00010  -0.00000  -0.00000   0.00000   0.00000 ...
  -0.00001   0.00001   0.27373   0.00000   0.00000  -1.26744  -0.00000  -0.00001   0.00000   0.00000   0.00000   0.00000 ...
   0.00000  -0.00000   0.00000   0.27373  -0.00000  -0.00000  -1.26743   0.00001   0.00000  -0.00000   0.00000   0.00000 ...
   0.00001  -0.00002   0.00000  -0.00000   0.27373  -0.00001   0.00001  -1.26745  -0.00000   0.00000  -0.00000   0.00000 ...
   0.00003  -0.00008  -1.26744  -0.00000  -0.00001   5.79815   0.00001   0.00005  -0.00001  -0.00000  -0.00000  -0.00000 ...
  -0.00001   0.00002  -0.00000  -1.26743   0.00001   0.00001   5.79808  -0.00006  -0.00000   0.00001  -0.00000  -0.00001 ...
  -0.00004   0.00010  -0.00001   0.00001  -1.26745   0.00005  -0.00006   5.79816   0.00001  -0.00000   0.00001  -0.00000 ...
   0.00000  -0.00000   0.00000   0.00000  -0.00000  -0.00001  -0.00000   0.00001  -0.93315   0.00001   0.00001  -0.00000 ...
   0.00000  -0.00000   0.00000  -0.00000   0.00000  -0.00000   0.00001  -0.00000   0.00001  -0.93314  -0.00000  -0.00001 ...
  -0.00000   0.00000   0.00000   0.00000  -0.00000  -0.00000  -0.00000   0.00001   0.00001  -0.00000  -0.93320   0.00000 ...
  -0.00000   0.00000   0.00000   0.00000   0.00000  -0.00000  -0.00001  -0.00000  -0.00000  -0.00001   0.00000  -0.93315 ...
   ...  only 12  components have been written...


 ITER STEP NUMBER     8
 vtorho : nnsclo_now=1, note that nnsclo,dbl_nnsclo,istep=0 0 8
 newocc: new Fermi energy is      -0.067766 , with nelect=     15.000000
  Number of bissection calls =  49
 newocc : computed new occ. numbers for occopt= 7 , spin-unpolarized case.
 2.000 2.000 2.000 2.000 2.000 2.000 1.001 1.000 0.999 0.000 0.000 0.000
mkrho: echo density (plane-wave part only)
 Total charge density [el/Bohr^3]
      Maximum=    1.4025E-01  at reduced coord.    0.0741    0.0741    0.9259
      Minimum=    2.1536E-06  at reduced coord.    0.4815    0.5185    0.4815
   Integrated=    8.1353E+00

 *********** RHOIJ (atom   1) **********
   1.95900   0.00607   0.00001   0.00003   0.00006   0.00001   0.00001  -0.00001   0.00001   0.00000   0.00001   0.00002 ...
   0.00607   0.00002  -0.00002   0.00001   0.00001   0.00000   0.00000  -0.00000   0.00002   0.00000  -0.00000   0.00002 ...
   0.00001  -0.00002   1.09208   0.00006   0.00070   0.00030   0.00000   0.00000   0.00002   0.00000   0.00001   0.00000 ...
   0.00003   0.00001   0.00006   1.09144  -0.00048   0.00000   0.00030  -0.00000   0.00000  -0.00001   0.00000   0.00002 ...
   0.00006   0.00001   0.00070  -0.00048   1.09360  -0.00000  -0.00000   0.00031  -0.00002   0.00000  -0.00002   0.00001 ...
   0.00001   0.00000   0.00030   0.00000  -0.00000   0.00000   0.00000   0.00000   0.00000   0.00000   0.00000   0.00000 ...
   0.00001   0.00000   0.00000   0.00030  -0.00000   0.00000   0.00000  -0.00000   0.00000  -0.00000   0.00000   0.00000 ...
  -0.00001  -0.00000   0.00000  -0.00000   0.00031   0.00000  -0.00000   0.00000  -0.00000   0.00000  -0.00000   0.00000 ...
   0.00001   0.00002   0.00002   0.00000  -0.00002   0.00000   0.00000  -0.00000   1.99240   0.00000   0.00000  -0.00000 ...
   0.00000   0.00000   0.00000  -0.00001   0.00000   0.00000  -0.00000   0.00000   0.00000   1.99240  -0.00000  -0.00000 ...
   0.00001  -0.00000   0.00001   0.00000  -0.00002   0.00000   0.00000  -0.00000   0.00000  -0.00000   1.99239   0.00000 ...
   0.00002   0.00002   0.00000   0.00002   0.00001   0.00000   0.00000   0.00000  -0.00000  -0.00000   0.00000   1.99240 ...
   ...  only 12  components have been written...

 Total charge density [el/Bohr^3]
      Maximum=    7.0206E-01  at reduced coord.    0.0000    0.0000    0.0000
      Minimum=    1.2392E-06  at reduced coord.    0.5000    0.5000    0.5000
   Integrated=    1.5000E+01
 ETOT  8  -72.191310984092    -1.531E-05 6.511E-08 1.091E-05
 scprqt: <Vxc>= -1.6211501E-01 hartree

 Pulay update with  7 previous iterations:
 mixing of old trial potential : alpha(m:m-4)=  0.841      0.146      0.171     -0.166      0.116E-01
  rhotov : is_hybrid_ncpp= F
  rhotov : n3xccc=       46656
 scfcv_core: previous iteration took 00 [s]
 average electrostatic smooth potential [Ha] , [eV]      0.000000        0.000000

 ****** Psp strength Dij in Ha (atom      1) *****
   1.39266  -3.19732  -0.00000   0.00000   0.00000   0.00003  -0.00000  -0.00003   0.00000   0.00000  -0.00000  -0.00000 ...
  -3.19732   7.27518   0.00001  -0.00000  -0.00001  -0.00006   0.00001   0.00006  -0.00000  -0.00000   0.00000   0.00000 ...
  -0.00000   0.00001   0.27373   0.00000   0.00000  -1.26742  -0.00000  -0.00000   0.00000   0.00000   0.00000   0.00000 ...
   0.00000  -0.00000   0.00000   0.27373  -0.00000  -0.00000  -1.26741   0.00000   0.00000  -0.00000   0.00000   0.00000 ...
   0.00000  -0.00001   0.00000  -0.00000   0.27373  -0.00000   0.00000  -1.26741  -0.00000   0.00000  -0.00000   0.00000 ...
   0.00003  -0.00006  -1.26742  -0.00000  -0.00000   5.79799   0.00000   0.00001  -0.00001  -0.00000  -0.00000  -0.00000 ...
  -0.00000   0.00001  -0.00000  -1.26741   0.00000   0.00000   5.79798  -0.00001  -0.00000   0.00001  -0.00000  -0.00001 ...
  -0.00003   0.00006  -0.00000   0.00000  -1.26741   0.00001  -0.00001   5.79799   0.00001  -0.00000   0.00000  -0.00000 ...
   0.00000  -0.00000   0.00000   0.00000  -0.00000  -0.00001  -0.00000   0.00001  -0.93308   0.00000   0.00000  -0.00000 ...
   0.00000  -0.00000   0.00000  -0.00000   0.00000  -0.00000   0.00001  -0.00000   0.00000  -0.93308  -0.00000  -0.00000 ...
  -0.00000   0.00000   0.00000   0.00000  -0.00000  -0.00000  -0.00000   0.00000   0.00000  -0.00000  -0.93314   0.00000 ...
  -0.00000   0.00000   0.00000   0.00000   0.00000  -0.00000  -0.00001  -0.00000  -0.00000  -0.00000   0.00000  -0.93308 ...
   ...  only 12  components have been written...


 ITER STEP NUMBER     9
 vtorho : nnsclo_now=1, note that nnsclo,dbl_nnsclo,istep=0 0 9
 newocc: new Fermi energy is      -0.067685 , with nelect=     15.000000
  Number of bissection calls =  45
 newocc : computed new occ. numbers for occopt= 7 , spin-unpolarized case.
 2.000 2.000 2.000 2.000 2.000 2.000 1.000 1.000 1.000 0.000 0.000 0.000
mkrho: echo density (plane-wave part only)
 Total charge density [el/Bohr^3]
      Maximum=    1.4023E-01  at reduced coord.    0.0741    0.9259    0.9259
      Minimum=    2.1473E-06  at reduced coord.    0.4815    0.4815    0.4815
   Integrated=    8.1350E+00

 *********** RHOIJ (atom   1) **********
   1.95905   0.00618  -0.00005   0.00001   0.00009   0.00001  -0.00000  -0.00000   0.00001   0.00000   0.00000   0.00001 ...
   0.00618   0.00002  -0.00001   0.00000   0.00000   0.00000  -0.00000  -0.00000   0.00001   0.00000   0.00000   0.00003 ...
  -0.00005  -0.00001   1.09218   0.00002   0.00009   0.00031   0.00000  -0.00000   0.00001  -0.00000   0.00001   0.00000 ...
   0.00001   0.00000   0.00002   1.09204  -0.00008  -0.00000   0.00032   0.00000   0.00000   0.00000   0.00000   0.00001 ...
   0.00009   0.00000   0.00009  -0.00008   1.09279  -0.00000   0.00000   0.00032  -0.00001   0.00000  -0.00001   0.00001 ...
   0.00001   0.00000   0.00031  -0.00000  -0.00000   0.00000   0.00000  -0.00000   0.00000  -0.00000   0.00000   0.00000 ...
  -0.00000  -0.00000   0.00000   0.00032   0.00000   0.00000   0.00000   0.00000   0.00000   0.00000   0.00000   0.00000 ...
  -0.00000  -0.00000  -0.00000   0.00000   0.00032  -0.00000   0.00000   0.00000  -0.00000   0.00000  -0.00000   0.00000 ...
   0.00001   0.00001   0.00001   0.00000  -0.00001   0.00000   0.00000  -0.00000   1.99240   0.00000  -0.00000   0.00000 ...
   0.00000   0.00000  -0.00000   0.00000   0.00000  -0.00000   0.00000   0.00000   0.00000   1.99240  -0.00000  -0.00000 ...
   0.00000   0.00000   0.00001   0.00000  -0.00001   0.00000   0.00000  -0.00000  -0.00000  -0.00000   1.99239  -0.00000 ...
   0.00001   0.00003   0.00000   0.00001   0.00001   0.00000   0.00000   0.00000   0.00000  -0.00000  -0.00000   1.99240 ...
   ...  only 12  components have been written...

 Total charge density [el/Bohr^3]
      Maximum=    7.0202E-01  at reduced coord.    0.0000    0.0000    0.0000
      Minimum=    1.2341E-06  at reduced coord.    0.5000    0.5000    0.5000
   Integrated=    1.5000E+01
 ETOT  9  -72.191313138227    -2.154E-06 6.693E-09 5.705E-06
 scprqt: <Vxc>= -1.6192902E-01 hartree

 Pulay update with  7 previous iterations:
 mixing of old trial potential : alpha(m:m-4)=   3.46      -2.19      -1.02      0.792     -0.628E-01
  rhotov : is_hybrid_ncpp= F
  rhotov : n3xccc=       46656
 scfcv_core: previous iteration took 00 [s]
 average electrostatic smooth potential [Ha] , [eV]      0.000000        0.000000

 ****** Psp strength Dij in Ha (atom      1) *****
   1.39269  -3.19738   0.00000  -0.00000  -0.00000  -0.00000   0.00000   0.00001  -0.00000  -0.00000   0.00000   0.00000 ...
  -3.19738   7.27540  -0.00000   0.00000   0.00000   0.00001  -0.00001  -0.00003   0.00000   0.00000  -0.00000  -0.00000 ...
   0.00000  -0.00000   0.27373  -0.00000  -0.00000  -1.26743   0.00000   0.00001  -0.00000  -0.00000  -0.00000   0.00000 ...
  -0.00000   0.00000  -0.00000   0.27373   0.00000   0.00000  -1.26743  -0.00001   0.00000   0.00000  -0.00000  -0.00000 ...
  -0.00000   0.00000  -0.00000   0.00000   0.27373   0.00001  -0.00001  -1.26742   0.00000   0.00000   0.00000  -0.00000 ...
  -0.00000   0.00001  -1.26743   0.00000   0.00001   5.79803  -0.00001  -0.00003   0.00000   0.00000   0.00000   0.00000 ...
   0.00000  -0.00001   0.00000  -1.26743  -0.00001  -0.00001   5.79805   0.00003   0.00000  -0.00000   0.00000   0.00000 ...
   0.00001  -0.00003   0.00001  -0.00001  -1.26742  -0.00003   0.00003   5.79801  -0.00000   0.00000  -0.00000   0.00000 ...
  -0.00000   0.00000  -0.00000   0.00000   0.00000   0.00000   0.00000  -0.00000  -0.93292   0.00000   0.00000   0.00000 ...
  -0.00000   0.00000  -0.00000   0.00000   0.00000   0.00000  -0.00000   0.00000   0.00000  -0.93293   0.00000   0.00000 ...
   0.00000  -0.00000  -0.00000  -0.00000   0.00000   0.00000   0.00000  -0.00000   0.00000   0.00000  -0.93299   0.00000 ...
   0.00000  -0.00000   0.00000  -0.00000  -0.00000   0.00000   0.00000   0.00000   0.00000   0.00000   0.00000  -0.93292 ...
   ...  only 12  components have been written...


 ITER STEP NUMBER    10
 vtorho : nnsclo_now=1, note that nnsclo,dbl_nnsclo,istep=0 0 10
 newocc: new Fermi energy is      -0.067525 , with nelect=     15.000000
  Number of bissection calls =  47
 newocc : computed new occ. numbers for occopt= 7 , spin-unpolarized case.
 2.000 2.000 2.000 2.000 2.000 2.000 1.000 1.000 1.000 0.000 0.000 0.000
mkrho: echo density (plane-wave part only)
 Total charge density [el/Bohr^3]
      Maximum=    1.4021E-01  at reduced coord.    0.0741    0.9259    0.0741
      Minimum=    2.1154E-06  at reduced coord.    0.4815    0.4815    0.4815
   Integrated=    8.1348E+00

 *********** RHOIJ (atom   1) **********
   1.95891   0.00622   0.00002  -0.00000  -0.00002   0.00000  -0.00000  -0.00001   0.00000  -0.00000   0.00000   0.00001 ...
   0.00622   0.00002   0.00000   0.00000  -0.00001   0.00000  -0.00000  -0.00000   0.00000  -0.00000   0.00000   0.00002 ...
   0.00002   0.00000   1.09217  -0.00004  -0.00013   0.00032   0.00000  -0.00000   0.00000  -0.00000   0.00000   0.00000 ...
  -0.00000   0.00000  -0.00004   1.09228   0.00014  -0.00000   0.00032   0.00000   0.00000   0.00000   0.00000   0.00000 ...
  -0.00002  -0.00001  -0.00013   0.00014   1.09211  -0.00000   0.00000   0.00032  -0.00000   0.00000  -0.00000   0.00000 ...
   0.00000   0.00000   0.00032  -0.00000  -0.00000   0.00000   0.00000  -0.00000   0.00000  -0.00000   0.00000  -0.00000 ...
  -0.00000  -0.00000   0.00000   0.00032   0.00000   0.00000   0.00000   0.00000   0.00000   0.00000   0.00000   0.00000 ...
  -0.00001  -0.00000  -0.00000   0.00000   0.00032  -0.00000   0.00000   0.00000  -0.00000   0.00000  -0.00000  -0.00000 ...
   0.00000   0.00000   0.00000   0.00000  -0.00000   0.00000   0.00000  -0.00000   1.99240  -0.00000  -0.00000  -0.00000 ...
  -0.00000  -0.00000  -0.00000   0.00000   0.00000  -0.00000   0.00000   0.00000  -0.00000   1.99240   0.00000   0.00000 ...
   0.00000   0.00000   0.00000   0.00000  -0.00000   0.00000   0.00000  -0.00000  -0.00000   0.00000   1.99239  -0.00000 ...
   0.00001   0.00002   0.00000   0.00000   0.00000  -0.00000   0.00000  -0.00000  -0.00000   0.00000  -0.00000   1.99240 ...
   ...  only 12  components have been written...

 Total charge density [el/Bohr^3]
      Maximum=    7.0202E-01  at reduced coord.    0.0000    0.0000    0.0000
      Minimum=    1.2134E-06  at reduced coord.    0.5000    0.5000    0.5000
   Integrated=    1.5000E+01
 ETOT 10  -72.191317764953    -4.627E-06 1.781E-08 1.157E-06
 scprqt: <Vxc>= -1.6140735E-01 hartree

 Pulay update with  7 previous iterations:
 mixing of old trial potential : alpha(m:m-4)=  0.781      0.932     -0.457     -0.720      0.415
  rhotov : is_hybrid_ncpp= F
  rhotov : n3xccc=       46656
 scfcv_core: previous iteration took 00 [s]
 average electrostatic smooth potential [Ha] , [eV]      0.000000        0.000000

 ****** Psp strength Dij in Ha (atom      1) *****
   1.39268  -3.19734   0.00000  -0.00000  -0.00000  -0.00001   0.00000   0.00001  -0.00000  -0.00000   0.00000   0.00000 ...
  -3.19734   7.27528  -0.00000   0.00000   0.00000   0.00002  -0.00001  -0.00003   0.00000   0.00000  -0.00000  -0.00000 ...
   0.00000  -0.00000   0.27373  -0.00000  -0.00000  -1.26742   0.00000   0.00000  -0.00000  -0.00000  -0.00000  -0.00000 ...
  -0.00000   0.00000  -0.00000   0.27373   0.00000   0.00000  -1.26742  -0.00000  -0.00000   0.00000  -0.00000  -0.00000 ...
  -0.00000   0.00000  -0.00000   0.00000   0.27373   0.00000  -0.00000  -1.26741   0.00000  -0.00000   0.00000  -0.00000 ...
  -0.00001   0.00002  -1.26742   0.00000   0.00000   5.79796  -0.00000  -0.00002   0.00000   0.00000   0.00000   0.00000 ...
   0.00000  -0.00001   0.00000  -1.26742  -0.00000  -0.00000   5.79797   0.00002   0.00000  -0.00000   0.00000   0.00000 ...
   0.00001  -0.00003   0.00000  -0.00000  -1.26741  -0.00002   0.00002   5.79794  -0.00000   0.00000  -0.00000   0.00000 ...
  -0.00000   0.00000  -0.00000  -0.00000   0.00000   0.00000   0.00000  -0.00000  -0.93289  -0.00000  -0.00000   0.00000 ...
  -0.00000   0.00000  -0.00000   0.00000  -0.00000   0.00000  -0.00000   0.00000  -0.00000  -0.93290   0.00000   0.00000 ...
   0.00000  -0.00000  -0.00000  -0.00000   0.00000   0.00000   0.00000  -0.00000  -0.00000   0.00000  -0.93296   0.00000 ...
   0.00000  -0.00000  -0.00000  -0.00000  -0.00000   0.00000   0.00000   0.00000   0.00000   0.00000   0.00000  -0.93289 ...
   ...  only 12  components have been written...


 ITER STEP NUMBER    11
 vtorho : nnsclo_now=1, note that nnsclo,dbl_nnsclo,istep=0 0 11
 newocc: new Fermi energy is      -0.067494 , with nelect=     15.000000
  Number of bissection calls =  47
 newocc : computed new occ. numbers for occopt= 7 , spin-unpolarized case.
 2.000 2.000 2.000 2.000 2.000 2.000 1.000 1.000 1.000 0.000 0.000 0.000
mkrho: echo density (plane-wave part only)
 Total charge density [el/Bohr^3]
      Maximum=    1.4021E-01  at reduced coord.    0.9259    0.0741    0.9259
      Minimum=    2.1041E-06  at reduced coord.    0.4815    0.4815    0.4815
   Integrated=    8.1347E+00

 *********** RHOIJ (atom   1) **********
   1.95892   0.00623   0.00001  -0.00000  -0.00001  -0.00000  -0.00000   0.00000  -0.00000  -0.00000   0.00000   0.00000 ...
   0.00623   0.00002   0.00000   0.00000  -0.00000  -0.00000  -0.00000   0.00000   0.00000  -0.00000  -0.00000   0.00000 ...
   0.00001   0.00000   1.09217  -0.00002  -0.00012   0.00032  -0.00000   0.00000   0.00000  -0.00000   0.00000  -0.00000 ...
  -0.00000   0.00000  -0.00002   1.09226   0.00011  -0.00000   0.00032   0.00000  -0.00000   0.00000   0.00000   0.00000 ...
  -0.00001  -0.00000  -0.00012   0.00011   1.09208   0.00000   0.00000   0.00033  -0.00000   0.00000  -0.00000   0.00000 ...
  -0.00000  -0.00000   0.00032  -0.00000   0.00000   0.00000   0.00000   0.00000   0.00000   0.00000   0.00000  -0.00000 ...
  -0.00000  -0.00000  -0.00000   0.00032   0.00000   0.00000   0.00000   0.00000  -0.00000  -0.00000   0.00000   0.00000 ...
   0.00000   0.00000   0.00000   0.00000   0.00033   0.00000   0.00000   0.00000  -0.00000  -0.00000  -0.00000  -0.00000 ...
  -0.00000   0.00000   0.00000  -0.00000  -0.00000   0.00000  -0.00000  -0.00000   1.99240  -0.00000  -0.00000   0.00000 ...
  -0.00000  -0.00000  -0.00000   0.00000   0.00000   0.00000  -0.00000  -0.00000  -0.00000   1.99240  -0.00000   0.00000 ...
   0.00000  -0.00000   0.00000   0.00000  -0.00000   0.00000   0.00000  -0.00000  -0.00000  -0.00000   1.99239  -0.00000 ...
   0.00000   0.00000  -0.00000   0.00000   0.00000  -0.00000   0.00000  -0.00000   0.00000   0.00000  -0.00000   1.99240 ...
   ...  only 12  components have been written...

 Total charge density [el/Bohr^3]
      Maximum=    7.0202E-01  at reduced coord.    0.0000    0.0000    0.0000
      Minimum=    1.2054E-06  at reduced coord.    0.5000    0.5000    0.5000
   Integrated=    1.5000E+01
 ETOT 11  -72.191318183615    -4.187E-07 1.447E-09 7.073E-07
 scprqt: <Vxc>= -1.6128729E-01 hartree

 Pulay update with  7 previous iterations:
 mixing of old trial potential : alpha(m:m-4)=   1.67     -0.835      0.220      0.565E-02 -0.107
  rhotov : is_hybrid_ncpp= F
  rhotov : n3xccc=       46656
 scfcv_core: previous iteration took 00 [s]
 average electrostatic smooth potential [Ha] , [eV]      0.000000        0.000000

 ****** Psp strength Dij in Ha (atom      1) *****
   1.39265  -3.19728   0.00000  -0.00000  -0.00000  -0.00000   0.00000   0.00000  -0.00000  -0.00000   0.00000   0.00000 ...
  -3.19728   7.27509  -0.00000   0.00000   0.00000   0.00001  -0.00000  -0.00001   0.00000   0.00000  -0.00000  -0.00000 ...
   0.00000  -0.00000   0.27373  -0.00000  -0.00000  -1.26740   0.00000   0.00000  -0.00000  -0.00000  -0.00000  -0.00000 ...
  -0.00000   0.00000  -0.00000   0.27373   0.00000   0.00000  -1.26740  -0.00000  -0.00000   0.00000  -0.00000  -0.00000 ...
  -0.00000   0.00000  -0.00000   0.00000   0.27373   0.00000  -0.00000  -1.26740   0.00000  -0.00000   0.00000  -0.00000 ...
  -0.00000   0.00001  -1.26740   0.00000   0.00000   5.79786  -0.00000  -0.00000   0.00000   0.00000   0.00000   0.00000 ...
   0.00000  -0.00000   0.00000  -1.26740  -0.00000  -0.00000   5.79786   0.00000   0.00000  -0.00000   0.00000   0.00000 ...
   0.00000  -0.00001   0.00000  -0.00000  -1.26740  -0.00000   0.00000   5.79786  -0.00000   0.00000  -0.00000   0.00000 ...
  -0.00000   0.00000  -0.00000  -0.00000   0.00000   0.00000   0.00000  -0.00000  -0.93289  -0.00000  -0.00000   0.00000 ...
  -0.00000   0.00000  -0.00000   0.00000  -0.00000   0.00000  -0.00000   0.00000  -0.00000  -0.93289  -0.00000   0.00000 ...
   0.00000  -0.00000  -0.00000  -0.00000   0.00000   0.00000   0.00000  -0.00000  -0.00000  -0.00000  -0.93295  -0.00000 ...
   0.00000  -0.00000  -0.00000  -0.00000  -0.00000   0.00000   0.00000   0.00000   0.00000   0.00000  -0.00000  -0.93289 ...
   ...  only 12  components have been written...


 ITER STEP NUMBER    12
 vtorho : nnsclo_now=1, note that nnsclo,dbl_nnsclo,istep=0 0 12
 newocc: new Fermi energy is      -0.067488 , with nelect=     15.000000
  Number of bissection calls =  47
 newocc : computed new occ. numbers for occopt= 7 , spin-unpolarized case.
 2.000 2.000 2.000 2.000 2.000 2.000 1.000 1.000 1.000 0.000 0.000 0.000
mkrho: echo density (plane-wave part only)
 Total charge density [el/Bohr^3]
      Maximum=    1.4021E-01  at reduced coord.    0.9259    0.0741    0.9259
      Minimum=    2.0983E-06  at reduced coord.    0.4815    0.4815    0.4815
   Integrated=    8.1348E+00

 *********** RHOIJ (atom   1) **********
   1.95892   0.00623   0.00001  -0.00000  -0.00000  -0.00000  -0.00000   0.00000   0.00000  -0.00000  -0.00000   0.00000 ...
   0.00623   0.00002  -0.00000   0.00000   0.00000  -0.00000  -0.00000   0.00000   0.00000  -0.00000  -0.00000  -0.00000 ...
   0.00001  -0.00000   1.09217  -0.00000  -0.00001   0.00032  -0.00000   0.00000   0.00000   0.00000   0.00000  -0.00000 ...
  -0.00000   0.00000  -0.00000   1.09218   0.00001  -0.00000   0.00032   0.00000  -0.00000  -0.00000   0.00000   0.00000 ...
  -0.00000   0.00000  -0.00001   0.00001   1.09215   0.00000   0.00000   0.00032  -0.00000  -0.00000  -0.00000  -0.00000 ...
  -0.00000  -0.00000   0.00032  -0.00000   0.00000   0.00000   0.00000   0.00000   0.00000   0.00000   0.00000  -0.00000 ...
  -0.00000  -0.00000  -0.00000   0.00032   0.00000   0.00000   0.00000   0.00000  -0.00000  -0.00000   0.00000   0.00000 ...
   0.00000   0.00000   0.00000   0.00000   0.00032   0.00000   0.00000   0.00000  -0.00000  -0.00000  -0.00000  -0.00000 ...
   0.00000   0.00000   0.00000  -0.00000  -0.00000   0.00000  -0.00000  -0.00000   1.99240   0.00000   0.00000  -0.00000 ...
  -0.00000  -0.00000   0.00000  -0.00000  -0.00000   0.00000  -0.00000  -0.00000   0.00000   1.99240  -0.00000   0.00000 ...
  -0.00000  -0.00000   0.00000   0.00000  -0.00000   0.00000   0.00000  -0.00000   0.00000  -0.00000   1.99239   0.00000 ...
   0.00000  -0.00000  -0.00000   0.00000  -0.00000  -0.00000   0.00000  -0.00000  -0.00000   0.00000   0.00000   1.99240 ...
   ...  only 12  components have been written...

 Total charge density [el/Bohr^3]
      Maximum=    7.0202E-01  at reduced coord.    0.0000    0.0000    0.0000
      Minimum=    1.2018E-06  at reduced coord.    0.5000    0.5000    0.5000
   Integrated=    1.5000E+01
 ETOT 12  -72.191318312699    -1.291E-07 2.560E-10 9.450E-08
 scprqt: <Vxc>= -1.6124514E-01 hartree

 Pulay update with  7 previous iterations:
 mixing of old trial potential : alpha(m:m-4)=   1.43     -0.579      0.159      0.108     -0.104
  rhotov : is_hybrid_ncpp= F
  rhotov : n3xccc=       46656
 scfcv_core: previous iteration took 00 [s]
 average electrostatic smooth potential [Ha] , [eV]      0.000000        0.000000

 ****** Psp strength Dij in Ha (atom      1) *****
   1.39264  -3.19725   0.00000  -0.00000  -0.00000  -0.00000   0.00000   0.00000   0.00000  -0.00000   0.00000  -0.00000 ...
  -3.19725   7.27500  -0.00000   0.00000   0.00000   0.00000  -0.00000  -0.00000  -0.00000   0.00000  -0.00000  -0.00000 ...
   0.00000  -0.00000   0.27373  -0.00000  -0.00000  -1.26739   0.00000   0.00000  -0.00000  -0.00000  -0.00000  -0.00000 ...
  -0.00000   0.00000  -0.00000   0.27373   0.00000   0.00000  -1.26739  -0.00000  -0.00000   0.00000  -0.00000  -0.00000 ...
  -0.00000   0.00000  -0.00000   0.00000   0.27373   0.00000  -0.00000  -1.26739   0.00000  -0.00000   0.00000  -0.00000 ...
  -0.00000   0.00000  -1.26739   0.00000   0.00000   5.79781  -0.00000  -0.00000   0.00000   0.00000   0.00000   0.00000 ...
   0.00000  -0.00000   0.00000  -1.26739  -0.00000  -0.00000   5.79781   0.00000   0.00000  -0.00000   0.00000   0.00000 ...
   0.00000  -0.00000   0.00000  -0.00000  -1.26739  -0.00000   0.00000   5.79780  -0.00000   0.00000  -0.00000   0.00000 ...
   0.00000  -0.00000  -0.00000  -0.00000   0.00000   0.00000   0.00000  -0.00000  -0.93288  -0.00000  -0.00000   0.00000 ...
  -0.00000   0.00000  -0.00000   0.00000  -0.00000   0.00000  -0.00000   0.00000  -0.00000  -0.93288   0.00000   0.00000 ...
   0.00000  -0.00000  -0.00000  -0.00000   0.00000   0.00000   0.00000  -0.00000  -0.00000   0.00000  -0.93295  -0.00000 ...
  -0.00000  -0.00000  -0.00000  -0.00000  -0.00000   0.00000   0.00000   0.00000   0.00000   0.00000  -0.00000  -0.93288 ...
   ...  only 12  components have been written...


 ITER STEP NUMBER    13
 vtorho : nnsclo_now=1, note that nnsclo,dbl_nnsclo,istep=0 0 13
 newocc: new Fermi energy is      -0.067478 , with nelect=     15.000000
  Number of bissection calls =  50
 newocc : computed new occ. numbers for occopt= 7 , spin-unpolarized case.
 2.000 2.000 2.000 2.000 2.000 2.000 1.000 1.000 1.000 0.000 0.000 0.000
mkrho: echo density (plane-wave part only)
 Total charge density [el/Bohr^3]
      Maximum=    1.4020E-01  at reduced coord.    0.9259    0.0741    0.9259
      Minimum=    2.0927E-06  at reduced coord.    0.4815    0.5185    0.4815
   Integrated=    8.1348E+00

 *********** RHOIJ (atom   1) **********
   1.95891   0.00623   0.00000   0.00000   0.00000  -0.00000  -0.00000   0.00000   0.00000  -0.00000  -0.00000   0.00000 ...
   0.00623   0.00002  -0.00000   0.00000   0.00000  -0.00000  -0.00000   0.00000   0.00000  -0.00000  -0.00000  -0.00000 ...
   0.00000  -0.00000   1.09216  -0.00000  -0.00001   0.00033  -0.00000   0.00000  -0.00000   0.00000   0.00000   0.00000 ...
   0.00000   0.00000  -0.00000   1.09216   0.00001  -0.00000   0.00033   0.00000   0.00000  -0.00000  -0.00000   0.00000 ...
[...]
  -0.00000  -0.00000  -0.00000  -0.00000  -0.00000  -0.00000  -0.00000   0.00000  -0.00000   0.00000  -0.00000  -0.00000 ...
   0.00000   0.00000  -0.00000  -0.00000  -0.00000  -0.00000  -0.00000   0.00000  -0.00000   0.00000   0.00000  -0.00000 ...
   0.00000  -0.00000  -0.00000  -0.00000   0.00000   0.00000  -0.00000   0.00000  -0.00000   0.00000  -0.00000  -0.00000 ...
  -0.00000  -0.00000  -0.00000  -0.00000   0.00000   0.00000  -0.00000  -0.00000  -0.00000   0.00000  -0.00000  -0.00000 ...
  -0.00000  -0.00000  -0.00000  -0.00000  -0.00000  -0.00000   0.00000  -0.00000  -0.00000   0.00000   0.00000  -0.00000 ...
   0.00000  -0.00000   0.00000   0.00000   0.00000  -0.00000  -0.00000  -0.00000  -0.00000   0.00000  -0.00000  -0.00000 ...
   0.00000   0.00000  -0.00000  -0.00000  -0.00000  -0.00000  -0.00000  -0.00000  -0.00000  -0.00000  -0.00000   0.00000 ...
   0.00000   0.00000   0.00000   0.00000   0.00000   0.00000   0.00000   0.00000  -0.00000   0.00000  -0.00000  -0.00000 ...
   0.00000   0.00000  -0.00000   0.00000  -0.00000  -0.00000   0.00000  -0.00000  -0.00000  -0.00000   0.00000  -0.00000 ...
   0.00000   0.00000  -0.00000  -0.00000  -0.00000  -0.00000  -0.00000  -0.00000   0.00000  -0.00000  -0.00000  -0.00000 ...
   ...  only 12  components have been written...
   === IMAGINARY PART:
  -0.00000   0.00000   0.00000   0.00000  -0.00000  -0.00000   0.00000   0.00000  -0.00000  -0.00000  -0.00000  -0.00000 ...
  -0.00000  -0.00000   0.00000   0.00000  -0.00000  -0.00000   0.00000   0.00000  -0.00000  -0.00000  -0.00000  -0.00000 ...
  -0.00000  -0.00000  -0.00000   0.45546  -0.00000  -0.00000  -0.05191  -0.00000   0.00000  -0.00000   0.00000   0.00000 ...
  -0.00000  -0.00000  -0.45546  -0.00000   0.00000   0.05191   0.00000   0.00000  -0.00000  -0.00000   0.00000  -0.00000 ...
   0.00000   0.00000   0.00000  -0.00000  -0.00000   0.00000   0.00000   0.00000   0.00000   0.00000  -0.00000  -0.00000 ...
   0.00000   0.00000   0.00000  -0.05191  -0.00000  -0.00000   0.00326   0.00000   0.00000   0.00000   0.00000   0.00000 ...
  -0.00000  -0.00000   0.05191  -0.00000  -0.00000  -0.00326  -0.00000  -0.00000  -0.00000  -0.00000   0.00000  -0.00000 ...
  -0.00000  -0.00000   0.00000  -0.00000  -0.00000  -0.00000   0.00000  -0.00000   0.00000  -0.00000  -0.00000  -0.00000 ...
   0.00000   0.00000  -0.00000   0.00000  -0.00000  -0.00000   0.00000  -0.00000  -0.00000  -0.00000  -0.00000  -0.00010 ...
   0.00000   0.00000   0.00000   0.00000  -0.00000  -0.00000   0.00000   0.00000   0.00000  -0.00000  -0.00019  -0.00000 ...
   0.00000   0.00000  -0.00000  -0.00000   0.00000  -0.00000  -0.00000   0.00000   0.00000   0.00019  -0.00000   0.00000 ...
   0.00000   0.00000  -0.00000   0.00000   0.00000  -0.00000   0.00000   0.00000   0.00010   0.00000  -0.00000  -0.00000 ...
   ...  only 12  components have been written...
 Atom #  1 - Component magn (y)
   === REAL PART:
  -0.00000  -0.00000   0.00000  -0.00000  -0.00000   0.00000   0.00000  -0.00000   0.00000  -0.00000   0.00000  -0.00000 ...
  -0.00000  -0.00000   0.00000  -0.00000  -0.00000   0.00000   0.00000   0.00000   0.00000  -0.00000   0.00000  -0.00000 ...
   0.00000   0.00000   0.00000   0.00000   0.00000   0.00000   0.00000   0.00000   0.00000   0.00000   0.00000   0.00000 ...
  -0.00000  -0.00000   0.00000  -0.00000  -0.00000   0.00000  -0.00000  -0.00000  -0.00000   0.00000   0.00000  -0.00000 ...
  -0.00000  -0.00000   0.00000  -0.00000  -0.00000   0.00000  -0.00000  -0.00000   0.00000   0.00000   0.00000  -0.00000 ...
   0.00000   0.00000   0.00000   0.00000   0.00000  -0.00000  -0.00000  -0.00000   0.00000   0.00000  -0.00000   0.00000 ...
   0.00000   0.00000   0.00000  -0.00000  -0.00000  -0.00000   0.00000  -0.00000  -0.00000   0.00000  -0.00000  -0.00000 ...
  -0.00000   0.00000   0.00000  -0.00000  -0.00000  -0.00000  -0.00000   0.00000   0.00000   0.00000   0.00000  -0.00000 ...
   0.00000   0.00000   0.00000  -0.00000   0.00000   0.00000  -0.00000   0.00000   0.00000   0.00000  -0.00000  -0.00000 ...
  -0.00000  -0.00000   0.00000   0.00000   0.00000   0.00000   0.00000   0.00000   0.00000  -0.00000   0.00000   0.00000 ...
   0.00000   0.00000   0.00000   0.00000   0.00000  -0.00000  -0.00000   0.00000  -0.00000   0.00000  -0.00000  -0.00000 ...
  -0.00000  -0.00000   0.00000  -0.00000  -0.00000   0.00000  -0.00000  -0.00000  -0.00000   0.00000  -0.00000  -0.00000 ...
   ...  only 12  components have been written...
   === IMAGINARY PART:
  -0.00000  -0.00000  -0.00000   0.00000  -0.00000   0.00000  -0.00000   0.00000  -0.00000   0.00000  -0.00000  -0.00000 ...
   0.00000  -0.00000  -0.00000  -0.00000  -0.00000   0.00000   0.00000   0.00000  -0.00000   0.00000  -0.00000  -0.00000 ...
   0.00000   0.00000  -0.00000   0.00000  -0.00000   0.00000  -0.00000  -0.00000   0.00000   0.00000   0.00000   0.00000 ...
  -0.00000   0.00000  -0.00000  -0.00000   0.45546  -0.00000  -0.00000  -0.05191   0.00000   0.00000  -0.00000  -0.00000 ...
   0.00000   0.00000   0.00000  -0.45546  -0.00000   0.00000   0.05191   0.00000  -0.00000  -0.00000  -0.00000  -0.00000 ...
  -0.00000  -0.00000  -0.00000   0.00000  -0.00000  -0.00000  -0.00000  -0.00000   0.00000   0.00000  -0.00000   0.00000 ...
   0.00000  -0.00000   0.00000   0.00000  -0.05191   0.00000  -0.00000   0.00326   0.00000   0.00000  -0.00000   0.00000 ...
  -0.00000  -0.00000   0.00000   0.05191  -0.00000   0.00000  -0.00326  -0.00000  -0.00000  -0.00000  -0.00000  -0.00000 ...
   0.00000   0.00000  -0.00000  -0.00000   0.00000  -0.00000  -0.00000   0.00000  -0.00000   0.00010   0.00000   0.00000 ...
  -0.00000  -0.00000  -0.00000  -0.00000   0.00000  -0.00000  -0.00000   0.00000  -0.00010  -0.00000   0.00000  -0.00000 ...
   0.00000   0.00000  -0.00000   0.00000   0.00000   0.00000   0.00000   0.00000  -0.00000  -0.00000  -0.00000  -0.00019 ...
   0.00000   0.00000  -0.00000   0.00000   0.00000  -0.00000  -0.00000   0.00000  -0.00000   0.00000   0.00019  -0.00000 ...
   ...  only 12  components have been written...
 Atom #  1 - Component magn (z)
   === REAL PART:
  -0.00000  -0.00000  -0.00000  -0.00000  -0.00000  -0.00000  -0.00000   0.00000   0.00000  -0.00000  -0.00000  -0.00000 ...
  -0.00000  -0.00000   0.00000  -0.00000  -0.00000  -0.00000  -0.00000   0.00000   0.00000  -0.00000  -0.00000  -0.00000 ...
  -0.00000   0.00000   0.00000  -0.00000  -0.00000   0.00000   0.00000  -0.00000   0.00000   0.00000   0.00000   0.00000 ...
  -0.00000  -0.00000  -0.00000   0.00000   0.00000   0.00000   0.00000   0.00000  -0.00000   0.00000  -0.00000  -0.00000 ...
  -0.00000  -0.00000  -0.00000   0.00000   0.00000  -0.00000   0.00000  -0.00000   0.00000   0.00000  -0.00000  -0.00000 ...
  -0.00000  -0.00000   0.00000   0.00000  -0.00000   0.00000  -0.00000  -0.00000   0.00000   0.00000   0.00000   0.00000 ...
  -0.00000  -0.00000   0.00000   0.00000   0.00000  -0.00000  -0.00000  -0.00000   0.00000   0.00000  -0.00000  -0.00000 ...
   0.00000   0.00000  -0.00000   0.00000  -0.00000  -0.00000  -0.00000   0.00000   0.00000   0.00000  -0.00000   0.00000 ...
   0.00000   0.00000   0.00000  -0.00000   0.00000   0.00000   0.00000   0.00000   0.00000   0.00000   0.00000   0.00000 ...
  -0.00000  -0.00000   0.00000   0.00000   0.00000   0.00000   0.00000   0.00000   0.00000   0.00000  -0.00000   0.00000 ...
  -0.00000  -0.00000   0.00000  -0.00000  -0.00000   0.00000  -0.00000  -0.00000   0.00000  -0.00000   0.00000  -0.00000 ...
  -0.00000  -0.00000   0.00000  -0.00000  -0.00000   0.00000  -0.00000   0.00000   0.00000   0.00000  -0.00000  -0.00000 ...
   ...  only 12  components have been written...
   === IMAGINARY PART:
  -0.00000   0.00000  -0.00000  -0.00000  -0.00000   0.00000   0.00000  -0.00000   0.00000  -0.00000  -0.00000  -0.00000 ...
  -0.00000  -0.00000   0.00000  -0.00000  -0.00000  -0.00000   0.00000   0.00000   0.00000  -0.00000  -0.00000  -0.00000 ...
   0.00000  -0.00000  -0.00000   0.00000  -0.45546   0.00000   0.00000   0.05191  -0.00000  -0.00000   0.00000   0.00000 ...
   0.00000   0.00000  -0.00000  -0.00000   0.00000  -0.00000  -0.00000   0.00000   0.00000   0.00000  -0.00000  -0.00000 ...
   0.00000   0.00000   0.45546  -0.00000  -0.00000  -0.05191  -0.00000  -0.00000   0.00000   0.00000  -0.00000   0.00000 ...
  -0.00000   0.00000  -0.00000   0.00000   0.05191  -0.00000   0.00000  -0.00326  -0.00000  -0.00000   0.00000  -0.00000 ...
  -0.00000  -0.00000  -0.00000   0.00000   0.00000  -0.00000  -0.00000  -0.00000   0.00000  -0.00000  -0.00000  -0.00000 ...
   0.00000  -0.00000  -0.05191  -0.00000   0.00000   0.00326   0.00000  -0.00000   0.00000   0.00000  -0.00000   0.00000 ...
  -0.00000  -0.00000   0.00000  -0.00000  -0.00000   0.00000  -0.00000  -0.00000  -0.00000  -0.00000  -0.00000   0.00000 ...
   0.00000   0.00000   0.00000  -0.00000  -0.00000   0.00000   0.00000  -0.00000   0.00000  -0.00000  -0.00000   0.00010 ...
   0.00000   0.00000  -0.00000   0.00000   0.00000  -0.00000   0.00000   0.00000   0.00000   0.00000  -0.00000  -0.00000 ...
   0.00000   0.00000  -0.00000   0.00000  -0.00000   0.00000   0.00000  -0.00000  -0.00000  -0.00010   0.00000  -0.00000 ...
   ...  only 12  components have been written...


================================================================================

 ----iterations are completed or convergence reached----


 === Gap info ===
  >>>> For spin  1
   Minimum optical gap =   1.9809 [eV], located at k-point      :   0.0000  0.0000  0.0000
   Fundamental gap     =   1.9809 [eV], Top of valence bands at :   0.0000  0.0000  0.0000
                                        Bottom of conduction at :   0.0000  0.0000  0.0000
 Mean square residual over all n,k,spin=   52.190E-13; max=  36.600E-12
   0.0000  0.0000  0.0000    1  3.66002E-11 kpt; spin; max resid(k); each band:
  3.02E-13 3.56E-13 3.10E-13 3.43E-13 4.97E-13 5.08E-13 4.93E-13 5.30E-13
  6.03E-14 4.62E-14 1.36E-12 1.39E-12 4.67E-13 6.77E-13 6.76E-13 1.16E-12
  6.00E-13 6.05E-13 8.82E-12 5.01E-12 5.73E-12 3.66E-11 3.01E-11 2.86E-11

 outwf: write wavefunction to file tspin_6o_DS2_WFK, with iomode -1
 outwf with iomode: -1, cpu_time:     0.00[s], walltime:     0.00 [s]
 prteigrs : about to open file tspin_6o_DS2_EIG
 Fermi (or HOMO) energy (hartree) =  -0.04763   Average Vxc (hartree)=  -0.15847
 Eigenvalues (hartree) for nkpt=   1  k points:
 kpt#   1, nband= 24, wtk=  1.00000, kpt=  0.0000  0.0000  0.0000 (reduced coord)
  -0.93353   -0.93353   -0.93353   -0.93353   -0.82304   -0.82304   -0.82304   -0.82304
  -0.82291   -0.82291   -0.42972   -0.42972   -0.11089   -0.11089   -0.03810   -0.03810
  -0.03810   -0.03810    0.02071    0.02071    0.12883    0.12883    0.12883    0.12883
      occupation numbers for kpt#   1
   1.00000    1.00000    1.00000    1.00000    1.00000    1.00000    1.00000    1.00000
   1.00000    1.00000    1.00000    1.00000    1.00000    1.00000    0.25000    0.25000
   0.25000    0.25000    0.00000    0.00000    0.00000    0.00000    0.00000    0.00000
 Total charge density [el/Bohr^3]
      Maximum=    6.9104E-01  at reduced coord.    0.0000    0.0000    0.0000
 Next maximum=    6.7045E-01  at reduced coord.    0.9722    0.0000    0.0000
      Minimum=    1.4257E-06  at reduced coord.    0.5000    0.5000    0.5000
 Next minimum=    1.8964E-06  at reduced coord.    0.5000    0.5278    0.5000
   Integrated=    1.5000E+01

 Cartesian components of stress tensor (hartree/bohr^3)
  sigma(1 1)= -5.34138537E-05  sigma(3 2)=  2.50599094E-10
  sigma(2 2)= -5.34139860E-05  sigma(3 1)= -5.02226812E-11
  sigma(3 3)= -5.34135702E-05  sigma(2 1)= -3.35872715E-10

-Cartesian components of stress tensor (GPa)         [Pressure=  1.5715E+00 GPa]
- sigma(1 1)= -1.57148957E+00  sigma(3 2)=  7.37287865E-06
- sigma(2 2)= -1.57149346E+00  sigma(3 1)= -1.47760205E-06
- sigma(3 3)= -1.57148123E+00  sigma(2 1)= -9.88171477E-06

== END DATASET(S) ==============================================================
================================================================================
  
 -outvars: echo values of variables after computation  --------
 
 These variables are accessible in NetCDF format (tspin_6o_OUT.nc)

            acell      1.0000000000E+01  1.0000000000E+01  1.0000000000E+01 Bohr
              amu      2.08980370E+02
             ecut      8.00000000E+00 Hartree
           etotal1    -7.2191318398E+01
           etotal2    -7.2273379972E+01
            fcart1     0.0000000000E+00  0.0000000000E+00  0.0000000000E+00
            fcart2     0.0000000000E+00  0.0000000000E+00  0.0000000000E+00
-          fftalg         312
           istwfk1       2
           istwfk2       1
              ixc           7
           jdtset        1    2
           kptopt           4
         kptrlatt        1    0    0      0    1    0      0    0    1
          kptrlen      1.00000000E+04
P           mkmem           1
            natom           1
            nband1         12
            nband2         24
           ndtset           2
            ngfft          27      27      27
          ngfftdg          36      36      36
             nkpt           1
          nspinor1          1
          nspinor2          2
            nstep          20
             nsym           1
           ntypat           1
              occ1     2.000000  2.000000  2.000000  2.000000  2.000000  2.000000
                       1.000002  1.000001  0.999998  0.000000  0.000000  0.000000
              occ2     1.000000  1.000000  1.000000  1.000000  1.000000  1.000000
                       1.000000  1.000000  1.000000  1.000000  1.000000  1.000000
                       0.999996  0.999996  0.250002  0.250002  0.250001  0.250001
                       0.000001  0.000001  0.000000  0.000000  0.000000  0.000000
           occopt           7
-      paral_atom           0
        pawcpxocc1          1
        pawcpxocc2          2
        pawecutdg      1.50000000E+01 Hartree
        pawspnorb1          0
        pawspnorb2          1
          spgroup           1
           strten1    -6.5421561407E-05 -6.5422064345E-05 -6.5421256199E-05
                      -7.8367192528E-11  1.4687888991E-09 -2.9120936031E-09
           strten2    -5.3413853660E-05 -5.3413986013E-05 -5.3413570184E-05
                       2.5059909401E-10 -5.0222681250E-11 -3.3587271488E-10
           toldfe      1.00000000E-07 Hartree
           tsmear      2.00000000E-02 Hartree
            typat      1
           useylm           1
            znucl       83.00000

================================================================================
  

================================================================================

 Suggested references for the acknowledgment of ABINIT usage.

 The users of ABINIT have little formal obligations with respect to the ABINIT group
 (those specified in the GNU General Public License, http://www.gnu.org/copyleft/gpl.txt).
 However, it is common practice in the scientific literature,
 to acknowledge the efforts of people that have made the research possible.
 In this spirit, please find below suggested citations of work written by ABINIT developers,
 corresponding to implementations inside of ABINIT that you have used in the present run.
 Note also that it will be of great value to readers of publications presenting these results,
 to read papers enabling them to understand the theoretical formalism and details
 of the ABINIT implementation.
 For information on why they are suggested, see also https://docs.abinit.org/theory/acknowledgments.
-
- [1] Implementation of the Projector Augmented-Wave Method in the ABINIT code.
- M. Torrent, F. Jollet, F. Bottin, G. Zerah, and X. Gonze Comput. Mat. Science 42, 337, (2008).
- Comment : PAW calculations. Strong suggestion to cite this paper.
- DOI and bibtex : see https://docs.abinit.org/theory/bibliography/#torrent2008
-
- [2] Recent developments in the ABINIT software package.
- Computer Phys. Comm. 205, 106 (2016).
- X.Gonze, F.Jollet, F.Abreu Araujo, D.Adams, B.Amadon, T.Applencourt,
- C.Audouze, J.-M.Beuken, J.Bieder, A.Bokhanchuk, E.Bousquet, F.Bruneval
- D.Caliste, M.Cote, F.Dahm, F.Da Pieve, M.Delaveau, M.Di Gennaro,
- B.Dorado, C.Espejo, G.Geneste, L.Genovese, A.Gerossier, M.Giantomassi,
- Y.Gillet, D.R.Hamann, L.He, G.Jomard, J.Laflamme Janssen, S.Le Roux,
- A.Levitt, A.Lherbier, F.Liu, I.Lukacevic, A.Martin, C.Martins,
- M.J.T.Oliveira, S.Ponce, Y.Pouillon, T.Rangel, G.-M.Rignanese,
- A.H.Romero, B.Rousseau, O.Rubel, A.A.Shukri, M.Stankovski, M.Torrent,
- M.J.Van Setten, B.Van Troeye, M.J.Verstraete, D.Waroquier, J.Wiktor,
- B.Xu, A.Zhou, J.W.Zwanziger.
- Comment : the fourth generic paper describing the ABINIT project.
- Note that a version of this paper, that is not formatted for Computer Phys. Comm. 
- is available at https://www.abinit.org/about/ABINIT16.pdf .
- The licence allows the authors to put it on the Web.
- DOI and bibtex : see https://docs.abinit.org/theory/bibliography/#gonze2016
-
- [3] ABINIT : First-principles approach of materials and nanosystem properties.
- Computer Phys. Comm. 180, 2582-2615 (2009).
- X. Gonze, B. Amadon, P.-M. Anglade, J.-M. Beuken, F. Bottin, P. Boulanger, F. Bruneval,
- D. Caliste, R. Caracas, M. Cote, T. Deutsch, L. Genovese, Ph. Ghosez, M. Giantomassi
- S. Goedecker, D.R. Hamann, P. Hermet, F. Jollet, G. Jomard, S. Leroux, M. Mancini, S. Mazevet,
- M.J.T. Oliveira, G. Onida, Y. Pouillon, T. Rangel, G.-M. Rignanese, D. Sangalli, R. Shaltaf,
- M. Torrent, M.J. Verstraete, G. Zerah, J.W. Zwanziger
- Comment : the third generic paper describing the ABINIT project.
- Note that a version of this paper, that is not formatted for Computer Phys. Comm. 
- is available at https://www.abinit.org/about/ABINIT_CPC_v10.pdf .
- The licence allows the authors to put it on the Web.
- DOI and bibtex : see https://docs.abinit.org/theory/bibliography/#gonze2009
-
- [4] A brief introduction to the ABINIT software package.
- Z. Kristallogr. 220, 558-562 (2005).
- X. Gonze, G.-M. Rignanese, M. Verstraete, J.-M. Beuken, Y. Pouillon, R. Caracas, F. Jollet,
- M. Torrent, G. Zerah, M. Mikami, Ph. Ghosez, M. Veithen, J.-Y. Raty, V. Olevano, F. Bruneval,
- L. Reining, R. Godby, G. Onida, D.R. Hamann, and D.C. Allan.
- Comment : the second generic paper describing the ABINIT project. Note that this paper
- should be cited especially if you are using the GW part of ABINIT, as several authors
- of this part are not in the list of authors of the first or third paper.
- The .pdf of the latter paper is available at https://www.abinit.org/about/zfk_0505-06_558-562.pdf.
- Note that it should not redistributed (Copyright by Oldenburg Wissenshaftverlag,
- the licence allows the authors to put it on the Web).
- DOI and bibtex : see https://docs.abinit.org/theory/bibliography/#gonze2005
-
- And optionally:
-
- [5] First-principles computation of material properties : the ABINIT software project. 
- X. Gonze, J.-M. Beuken, R. Caracas, F. Detraux, M. Fuchs, G.-M. Rignanese, L. Sindic,
- M. Verstraete, G. Zerah, F. Jollet, M. Torrent, A. Roy, M. Mikami, Ph. Ghosez, J.-Y. Raty, D.C. Allan.
- Computational Materials Science 25, 478-492 (2002). http://dx.doi.org/10.1016/S0927-0256(02)00325-7
- Comment : the original paper describing the ABINIT project.
- DOI and bibtex : see https://docs.abinit.org/theory/bibliography/#gonze2002
  Asked to delete not existent file: tspin_6_STATUS
 Proc.   0 individual time (sec): cpu=          5.7  wall=          5.9

 Calculation completed.
.Delivered   0 WARNINGs and   0 COMMENTs to log file.

--- !FinalSummary
program: abinit
version: 8.10.3
start_datetime: Mon Oct 28 16:29:53 2019
end_datetime: Mon Oct 28 16:29:59 2019
overall_cpu_time:          11.5
overall_wall_time:          11.8
exit_requested_by_user: no 
timelimit: 0
pseudos: 
    Bi  : c067a221c152ba8be1a9f311a48b56e4
usepaw: 1
mpi_procs: 2
omp_threads: 1
num_warnings: 0
num_comments: 0
...
