  ABINIT 8.11.13
  
  Give name for formatted input file: 
opt.in
  Give name for formatted output file:
opt.out
  Give root name for generic input files:
opti
  Give root name for generic output files:
opto
  Give root name for generic temporary files:
opt

.Version 8.11.13 of ABINIT 
.(MPI version, prepared for a x86_64_linux_intel14.0 computer) 

.Copyright (C) 1998-2019 ABINIT group . 
 ABINIT comes with ABSOLUTELY NO WARRANTY.
 It is free software, and you are welcome to redistribute it
 under certain conditions (GNU General Public License,
 see ~abinit/COPYING or http://www.gnu.org/copyleft/gpl.txt).

 ABINIT is a project of the Universite Catholique de Louvain,
 Corning Inc. and other collaborators, see ~abinit/doc/developers/contributors.txt .
 Please read https://docs.abinit.org/theory/acknowledgments for suggested
 acknowledgments of the ABINIT effort.
 For more information, see https://www.abinit.org .

.Starting date : Fri 10 Jan 2020.
- ( at 12h57 )
  
 
 ++++++++++++++++++++++++++++++++++++++++++++++++++++++++++++++++++++++++++++++
 
 === Build Information === 
  Version       : 8.11.13
  Build target  : x86_64_linux_intel14.0
  Build date    : 20191206
 
 === Compiler Suite === 
  C compiler       : intel14.0
  C++ compiler     : gnu14.0
  Fortran compiler : intel14.0
  CFLAGS           :  -g -O2
  CXXFLAGS         :  -g -O2 -mtune=native -march=native
  FCFLAGS          :  -g -extend-source -nofpscomp
  FC_LDFLAGS       :    -static-intel -static-libgcc
 
 === Optimizations === 
  Debug level        : basic
  Optimization level : standard
  Architecture       : intel_xeon
 
 === Multicore === 
  Parallel build : yes
  Parallel I/O   : yes
  openMP support : no
  GPU support    : no
 
 === Connectors / Fallbacks === 
  Connectors on : yes
  Fallbacks on  : yes
  DFT flavor    : libxc-fallback
  FFT flavor    : fftw3
  LINALG flavor : mkl
  TIMER flavor  : abinit
  TRIO flavor   : netcdf
 
 === Experimental features === 
  Exports             : no
  GW double-precision : yes
 
 ++++++++++++++++++++++++++++++++++++++++++++++++++++++++++++++++++++++++++++++
 

 ++++++++++++++++++++++++++++++++++++++++++++++++++++++++++++++++++++++++++++++
 Default optimizations:
   -O3


 Optimizations for 43_ptgroups:
   -O0


 ++++++++++++++++++++++++++++++++++++++++++++++++++++++++++++++++++++++++++++++


 ++++++++++++++++++++++++++++++++++++++++++++++++++++++++++++++++++++++++++++++
 CPP options activated during the build:

                  CC_INTEL                   CXX_GNU                  FC_INTEL
 
 HAVE_FC_ALLOCATABLE_DT...             HAVE_FC_ASYNC  HAVE_FC_COMMAND_ARGUMENT
 
        HAVE_FC_CONTIGUOUS           HAVE_FC_CPUTIME             HAVE_FC_ETIME
 
              HAVE_FC_EXIT             HAVE_FC_FLUSH             HAVE_FC_GAMMA
 
            HAVE_FC_GETENV            HAVE_FC_GETPID   HAVE_FC_IEEE_ARITHMETIC
 
   HAVE_FC_IEEE_EXCEPTIONS             HAVE_FC_IOMSG     HAVE_FC_ISO_C_BINDING
 
  HAVE_FC_ISO_FORTRAN_2008        HAVE_FC_LONG_LINES        HAVE_FC_MOVE_ALLOC
 
  HAVE_FC_ON_THE_FLY_SHAPE           HAVE_FC_PRIVATE         HAVE_FC_PROTECTED
 
           HAVE_FC_SHIFTLR         HAVE_FC_STREAM_IO            HAVE_FC_SYSTEM
 
                  HAVE_FFT            HAVE_FFT_FFTW3              HAVE_FFT_MPI
 
           HAVE_FFT_SERIAL               HAVE_GW_DPC        HAVE_LIBPAW_ABINIT
 
      HAVE_LIBTETRA_ABINIT                HAVE_LIBXC               HAVE_LINALG
 
         HAVE_LINALG_AXPBY        HAVE_LINALG_GEMM3M  HAVE_LINALG_MKL_IMATCOPY
 
   HAVE_LINALG_MKL_OMATADD  HAVE_LINALG_MKL_OMATCOPY   HAVE_LINALG_MKL_THREADS
 
        HAVE_LINALG_SERIAL                  HAVE_MPI                 HAVE_MPI2
 
       HAVE_MPI_IALLREDUCE        HAVE_MPI_IALLTOALL       HAVE_MPI_IALLTOALLV
 
           HAVE_MPI_IBCAST         HAVE_MPI_IGATHERV        HAVE_MPI_INTEGER16
 
               HAVE_MPI_IO HAVE_MPI_TYPE_CREATE_S...               HAVE_NETCDF
 
           HAVE_NETCDF_MPI                HAVE_NUMPY             HAVE_OS_LINUX
 
         HAVE_TIMER_ABINIT                  HAVE_XML              USE_MACROAVE
 
 ++++++++++++++++++++++++++++++++++++++++++++++++++++++++++++++++++++++++++++++

- input  file    -> opt.in
- output file    -> opt.out
- root for input  files -> opti
- root for output files -> opto
 
Netcdf library supports MPI-IO
-instrng: 56 lines of input have been read from file opt.in
 

 Please give name of formatted atomic psp file
 For atom type 1, psp file is /CECI/home/ucl/naps/jovbever/.PsP/Si/Si.psp8
  read the values zionpsp=  4.0 , pspcod=   8 , lmax=   2
 
 inpspheads: deduce mpsang = 3, n1xccc = 2501.

======================================================= 
invars1m : enter jdtset= 0
 
 symlatt: the Bravais lattice is cF (face-centered cubic)
  xred   is defined in input file
 ingeo: takes atomic coordinates from input array xred
 
 symlatt: the Bravais lattice is cF (face-centered cubic)
 
 symlatt: the Bravais lattice is cF (face-centered cubic)
 
--- !COMMENT
src_file: m_symfind.F90
src_line: 931
message: |
    The Bravais lattice determined only from the primitive
    vectors, bravais(1)=  7, is more symmetric
    than the real one, iholohedry=  3, obtained by taking into
    account the atomic positions. Start deforming the primitive vector set.
...
 
 
 symlatt: the Bravais lattice is oI (body-centered orthorhombic)
 symspgr: spgroup=  74  Im m a   (=D2h^28)
 For input ecut=  8.820000E+00 best grid ngfft=      24      24      24
       max ecut=  1.105508E+01
 
 ==== FFT mesh ====
  FFT mesh divisions ........................    24   24   24
  Augmented FFT divisions ...................    25   25   24
  FFT algorithm .............................   312
  FFT cache size ............................    16
 getmpw: optimal value of mpw= 467
 
 Symmetries : space group Im m a (# 74); Bravais oI (body-center ortho.)
 
 getdim_nloc : deduce lmnmax  =  18, lnmax  =   6,
                      lmnmaxso=  18, lnmaxso=   6.
memory: analysis of memory needs
================================================================================
 Values of the parameters that define the memory need of the present run
     intxc =       0    ionmov =       2      iscf =       7    lmnmax =       6
     lnmax =       6     mgfft =      24  mpssoang =       3    mqgrid =    3001
     natom =       2  nloc_mem =       1    nspden =       1   nspinor =       1
    nsppol =       1      nsym =       8    n1xccc =    2501    ntypat =       1
    occopt =       1   xclevel =       2
-    mband =           6        mffmem =           1         mkmem =          42
       mpw =         467          nfft =       13824          nkpt =         126
================================================================================
P This job should need less than                       7.208 Mbytes of memory.
  Rough estimation (10% accuracy) of disk space for files :
_ WF disk file :      5.389 Mbytes ; DEN or POT disk file :      0.107 Mbytes.
================================================================================
 
 Biggest array : cg(disk), with      1.7977 MBytes.
 memana : allocated an array of      1.798 Mbytes, for testing purposes.
 memana: allocated       7.208Mbytes, for testing purposes. 
 The job will continue.
--------------------------------------------------------------------------------
------------- Echo of variables that govern the present computation ------------
--------------------------------------------------------------------------------
-
- outvars: echo of selected default values                                      
-   iomode0 =  0 , fftalg0 =312 , wfoptalg0 =  0
-
- outvars: echo of global parameters not present in the input file              
-  max_nthreads =    0
-
 -outvars: echo values of preprocessed input variables --------
 
 These variables are accessible in NetCDF format (opto_OUT.nc)

            acell      1.1338356797E+01  1.1338356797E+01  1.1338356797E+01 Bohr
              amu      2.80855000E+01
          dilatmx      1.05000000E+00
             ecut      8.00000000E+00 Hartree
           ecutsm      5.00000000E-01 Hartree
-          fftalg         312
           ionmov           2
              ixc          11
              kpt     -8.33333333E-02 -1.66666667E-01  0.00000000E+00
                      -1.66666667E-01 -8.33333333E-02  0.00000000E+00
                      -8.33333333E-02 -3.33333333E-01  0.00000000E+00
                      -1.66666667E-01 -2.50000000E-01  0.00000000E+00
                      -8.33333333E-02 -2.50000000E-01  8.33333333E-02
                      -2.50000000E-01 -1.66666667E-01  0.00000000E+00
                      -8.33333333E-02 -1.66666667E-01  1.66666667E-01
                      -3.33333333E-01 -8.33333333E-02  0.00000000E+00
                      -2.50000000E-01 -8.33333333E-02  8.33333333E-02
                      -8.33333333E-02  5.00000000E-01  0.00000000E+00
                      -1.66666667E-01 -4.16666667E-01  0.00000000E+00
                      -8.33333333E-02 -4.16666667E-01  8.33333333E-02
                      -2.50000000E-01 -3.33333333E-01  0.00000000E+00
                      -1.66666667E-01 -3.33333333E-01  8.33333333E-02
                      -8.33333333E-02 -3.33333333E-01  1.66666667E-01
                      -3.33333333E-01 -2.50000000E-01  0.00000000E+00
                      -1.66666667E-01 -2.50000000E-01  1.66666667E-01
                      -8.33333333E-02 -2.50000000E-01  2.50000000E-01
                      -4.16666667E-01 -1.66666667E-01  0.00000000E+00
                      -3.33333333E-01 -1.66666667E-01  8.33333333E-02
                      -8.33333333E-02 -1.66666667E-01  3.33333333E-01
                       5.00000000E-01 -8.33333333E-02  0.00000000E+00
                      -4.16666667E-01 -8.33333333E-02  8.33333333E-02
                      -3.33333333E-01 -8.33333333E-02  1.66666667E-01
                      -8.33333333E-02  3.33333333E-01  0.00000000E+00
                      -1.66666667E-01  4.16666667E-01  0.00000000E+00
                      -2.50000000E-01  5.00000000E-01  0.00000000E+00
                      -1.66666667E-01  5.00000000E-01  8.33333333E-02
                      -3.33333333E-01 -4.16666667E-01  0.00000000E+00
                      -2.50000000E-01 -4.16666667E-01  8.33333333E-02
                      -1.66666667E-01 -4.16666667E-01  1.66666667E-01
                      -8.33333333E-02 -4.16666667E-01  2.50000000E-01
                      -4.16666667E-01 -3.33333333E-01  0.00000000E+00
                      -2.50000000E-01 -3.33333333E-01  1.66666667E-01
                      -1.66666667E-01 -3.33333333E-01  2.50000000E-01
                      -8.33333333E-02 -3.33333333E-01  3.33333333E-01
                       5.00000000E-01 -2.50000000E-01  0.00000000E+00
                      -4.16666667E-01 -2.50000000E-01  8.33333333E-02
                      -1.66666667E-01 -2.50000000E-01  3.33333333E-01
                       4.16666667E-01 -1.66666667E-01  0.00000000E+00
                       5.00000000E-01 -1.66666667E-01  8.33333333E-02
                      -4.16666667E-01 -1.66666667E-01  1.66666667E-01
                       3.33333333E-01 -8.33333333E-02  0.00000000E+00
                       4.16666667E-01 -8.33333333E-02  8.33333333E-02
                       5.00000000E-01 -8.33333333E-02  1.66666667E-01
                      -4.16666667E-01 -8.33333333E-02  2.50000000E-01
                      -8.33333333E-02  1.66666667E-01  0.00000000E+00
                      -1.66666667E-01  2.50000000E-01  0.00000000E+00
                      -2.50000000E-01  3.33333333E-01  0.00000000E+00
                      -3.33333333E-01  4.16666667E-01  0.00000000E+00
                       outvar_i_n : Printing only first  50 k-points.
         kptrlatt        6   -6    6     -6    6    6     -6   -6    6
          kptrlen      6.80301408E+01
P           mkmem          42
            natom           2
            nband           6
            ngfft          24      24      24
             nkpt         126
             nsym           8
            ntime          15
           ntypat           1
              occ      2.000000  2.000000  2.000000  2.000000  0.000000  0.000000
          optcell           2
            rprim      5.0000000000E-01  5.0000000000E-01  0.0000000000E+00
                       0.0000000000E+00  5.0000000000E-01  5.0000000000E-01
                       5.0000000000E-01  0.0000000000E+00  5.0000000000E-01
           shiftk      5.00000000E-01  5.00000000E-01  5.00000000E-01
          spgroup          74
           symrel      1  0  0   0  1  0   0  0  1      -1  0  0   0 -1  0   0  0 -1
                       0 -1  1   0 -1  0   1 -1  0       0  1 -1   0  1  0  -1  1  0
                       0  0  1   0  1  0   1  0  0       0  0 -1   0 -1  0  -1  0  0
                       1 -1  0   0 -1  0   0 -1  1      -1  1  0   0  1  0   0  1 -1
            tnons      0.0000000  0.0000000  0.0000000     0.2400000  0.2600000  0.2400000
                       0.0000000  0.0000000  0.0000000     0.2400000  0.2600000  0.2400000
                       0.0000000  0.0000000  0.0000000     0.2400000  0.2600000  0.2400000
                       0.0000000  0.0000000  0.0000000     0.2400000  0.2600000  0.2400000
           tolmxf      1.00000000E-08
           tolvrs      1.00000000E-10
            typat      1  1
              wtk        0.00926    0.00926    0.00926    0.00926    0.00926    0.00926
                         0.00926    0.00926    0.00926    0.00926    0.00926    0.00926
                         0.00926    0.00926    0.00926    0.00926    0.00926    0.00926
                         0.00926    0.00926    0.00926    0.00926    0.00926    0.00926
                         0.00926    0.00926    0.00926    0.00926    0.00926    0.00926
                         0.00926    0.00926    0.00926    0.00926    0.00926    0.00926
                         0.00926    0.00926    0.00926    0.00926    0.00926    0.00926
                         0.00926    0.00926    0.00926    0.00926    0.00926    0.00926
                         0.00926    0.00926
                       outvars : Printing only first  50 k-points.
           xangst      0.0000000000E+00  0.0000000000E+00  0.0000000000E+00
                       1.4400000000E+00  1.5000000000E+00  1.5000000000E+00
            xcart      0.0000000000E+00  0.0000000000E+00  0.0000000000E+00
                       2.7212056314E+00  2.8345891993E+00  2.8345891993E+00
             xred      0.0000000000E+00  0.0000000000E+00  0.0000000000E+00
                       2.4000000000E-01  2.6000000000E-01  2.4000000000E-01
            znucl       14.00000
 
================================================================================
 
 chkinp: Checking input parameters for consistency.
 
 chkinp: WARNING -
   Chksymbreak=1 . Found potentially symmetry-breaking value of tnons, 
   which is neither a rational fraction in 1/8th nor in 1/12th :
   for the symmetry number    2
   symrel is  -1  0  0  0 -1  0  0  0 -1
   tnons is     2.400000E-01    2.600000E-01    2.400000E-01
   Please, read the description of the input variable chksymbreak,
   then, if you feel confident, you might switch it to zero, or consult with the forum.
 
 chkinp: WARNING -
   Chksymbreak=1 . Found potentially symmetry-breaking value of tnons, 
   which is neither a rational fraction in 1/8th nor in 1/12th :
   for the symmetry number    2
   symrel is  -1  0  0  0 -1  0  0  0 -1
   tnons is     2.400000E-01    2.600000E-01    2.400000E-01
   Please, read the description of the input variable chksymbreak,
   then, if you feel confident, you might switch it to zero, or consult with the forum.
 
 chkinp: WARNING -
   Chksymbreak=1 . Found potentially symmetry-breaking value of tnons, 
   which is neither a rational fraction in 1/8th nor in 1/12th :
   for the symmetry number    2
   symrel is  -1  0  0  0 -1  0  0  0 -1
   tnons is     2.400000E-01    2.600000E-01    2.400000E-01
   Please, read the description of the input variable chksymbreak,
   then, if you feel confident, you might switch it to zero, or consult with the forum.
 
 chkinp: WARNING -
   Chksymbreak=1 . Found potentially symmetry-breaking value of tnons, 
   which is neither a rational fraction in 1/8th nor in 1/12th :
   for the symmetry number    4
   symrel is   0  1 -1  0  1  0 -1  1  0
   tnons is     2.400000E-01    2.600000E-01    2.400000E-01
   Please, read the description of the input variable chksymbreak,
   then, if you feel confident, you might switch it to zero, or consult with the forum.
 
 chkinp: WARNING -
   Chksymbreak=1 . Found potentially symmetry-breaking value of tnons, 
   which is neither a rational fraction in 1/8th nor in 1/12th :
   for the symmetry number    4
   symrel is   0  1 -1  0  1  0 -1  1  0
   tnons is     2.400000E-01    2.600000E-01    2.400000E-01
   Please, read the description of the input variable chksymbreak,
   then, if you feel confident, you might switch it to zero, or consult with the forum.
 
 chkinp: WARNING -
   Chksymbreak=1 . Found potentially symmetry-breaking value of tnons, 
   which is neither a rational fraction in 1/8th nor in 1/12th :
   for the symmetry number    4
   symrel is   0  1 -1  0  1  0 -1  1  0
   tnons is     2.400000E-01    2.600000E-01    2.400000E-01
   Please, read the description of the input variable chksymbreak,
   then, if you feel confident, you might switch it to zero, or consult with the forum.
 
 chkinp: WARNING -
   Chksymbreak=1 . Found potentially symmetry-breaking value of tnons, 
   which is neither a rational fraction in 1/8th nor in 1/12th :
   for the symmetry number    6
   symrel is   0  0 -1  0 -1  0 -1  0  0
   tnons is     2.400000E-01    2.600000E-01    2.400000E-01
   Please, read the description of the input variable chksymbreak,
   then, if you feel confident, you might switch it to zero, or consult with the forum.
 
 chkinp: WARNING -
   Chksymbreak=1 . Found potentially symmetry-breaking value of tnons, 
   which is neither a rational fraction in 1/8th nor in 1/12th :
   for the symmetry number    6
   symrel is   0  0 -1  0 -1  0 -1  0  0
   tnons is     2.400000E-01    2.600000E-01    2.400000E-01
   Please, read the description of the input variable chksymbreak,
   then, if you feel confident, you might switch it to zero, or consult with the forum.
 
 chkinp: WARNING -
   Chksymbreak=1 . Found potentially symmetry-breaking value of tnons, 
   which is neither a rational fraction in 1/8th nor in 1/12th :
   for the symmetry number    6
   symrel is   0  0 -1  0 -1  0 -1  0  0
   tnons is     2.400000E-01    2.600000E-01    2.400000E-01
   Please, read the description of the input variable chksymbreak,
   then, if you feel confident, you might switch it to zero, or consult with the forum.
 
 chkinp: WARNING -
   Chksymbreak=1 . Found potentially symmetry-breaking value of tnons, 
   which is neither a rational fraction in 1/8th nor in 1/12th :
   for the symmetry number    8
   symrel is  -1  1  0  0  1  0  0  1 -1
   tnons is     2.400000E-01    2.600000E-01    2.400000E-01
   Please, read the description of the input variable chksymbreak,
   then, if you feel confident, you might switch it to zero, or consult with the forum.
 
 chkinp: WARNING -
   Chksymbreak=1 . Found potentially symmetry-breaking value of tnons, 
   which is neither a rational fraction in 1/8th nor in 1/12th :
   for the symmetry number    8
   symrel is  -1  1  0  0  1  0  0  1 -1
   tnons is     2.400000E-01    2.600000E-01    2.400000E-01
   Please, read the description of the input variable chksymbreak,
   then, if you feel confident, you might switch it to zero, or consult with the forum.
 
 chkinp: WARNING -
   Chksymbreak=1 . Found potentially symmetry-breaking value of tnons, 
   which is neither a rational fraction in 1/8th nor in 1/12th :
   for the symmetry number    8
   symrel is  -1  1  0  0  1  0  0  1 -1
   tnons is     2.400000E-01    2.600000E-01    2.400000E-01
   Please, read the description of the input variable chksymbreak,
   then, if you feel confident, you might switch it to zero, or consult with the forum.
 DATA TYPE INFORMATION: 
 REAL:      Data type name: REAL(DP) 
            Kind value:      8
            Precision:      15
            Smallest nonnegligible quantity relative to 1:  0.22204460E-15
            Smallest positive number:                       0.22250739-307
            Largest representable number:                   0.17976931+309
 INTEGER:   Data type name: INTEGER(default) 
            Kind value: 4
            Bit size:   32
            Largest representable number: 2147483647
 LOGICAL:   Data type name: LOGICAL 
            Kind value: 4
 CHARACTER: Data type name: CHARACTER             Kind value: 1

  ==== OpenMP parallelism is OFF ====
 
  ==== Using MPI-2 specifications ==== 
  MPI-IO support is ON
  xmpi_tag_ub ................   1073741824
  xmpi_bsize_ch ..............            1
  xmpi_bsize_int .............            4
  xmpi_bsize_sp ..............            4
  xmpi_bsize_dp ..............            8
  xmpi_bsize_spc .............            8
  xmpi_bsize_dpc .............           16
  xmpio_bsize_frm ............            4
  xmpi_address_kind ..........            8
  xmpi_offset_kind ...........            8
  MPI_WTICK ..................   1.000000000000000E-006
 
================================================================================
== DATASET  1 ==================================================================
-   nproc =    3
 
 
--- !COMMENT
src_file: m_xgScalapack.F90
src_line: 237
message: |
    xgScalapack in auto mode
...
 
 
 getdim_nloc : deduce lmnmax  =  18, lnmax  =   6,
                      lmnmaxso=  18, lnmaxso=   6.
 Exchange-correlation functional for the present dataset will be:
  GGA: Perdew-Burke-Ernzerhof functional - ixc=11
 Citation for XC functional:
  J.P.Perdew, K.Burke, M.Ernzerhof, PRL 77, 3865 (1996)
 
 Unit cell volume ucvol=  3.6441007E+02 bohr^3
 Angles (23,13,12)=  6.00000000E+01  6.00000000E+01  6.00000000E+01 degrees
 
 getcut: wavevector=  0.0000  0.0000  0.0000  ngfft=  24  24  24
         ecut(hartree)=      8.820   => boxcut(ratio)=   2.23912
 
 getcut : COMMENT -
  Note that boxcut > 2.2 ; recall that boxcut=Gcut(box)/Gcut(sphere) = 2
  is sufficient for exact treatment of convolution.
  Such a large boxcut is a waste : you could raise ecut
  e.g. ecut=   11.055083 Hartrees makes boxcut=2
 
- pspini: atom type   1  psp file is /CECI/home/ucl/naps/jovbever/.PsP/Si/Si.psp8
- pspatm: opening atomic psp file    /CECI/home/ucl/naps/jovbever/.PsP/Si/Si.psp8
- Si    ONCVPSP-3.2.3.1  r_core=   1.60303   1.72197   1.91712
- 14.00000   4.00000    170510                znucl, zion, pspdat
    8   11    2    4       600   0.00000      pspcod,pspxc,lmax,lloc,mmax,r2well
    5.99000000000000    4.00000000000000    0.00000000000000   rchrg,fchrg,qchrg
     nproj     2     2     2
     extension_switch     1
  valence charge integrates to:    3.95328304696650     
  pspatm : epsatm=    9.34321699
         --- l  ekb(1:nproj) -->
             0    5.168965    0.829883
             1    2.571282    0.578307
             2   -2.427311   -0.488097
 pspatm: atomic psp has been read  and splines computed
 
   1.49491472E+02                                ecore*ucvol(ha*bohr**3)
 ==== Info on pseudopotentials ====
  Norm-conserving pseudopotentials
  Number of pseudopotentials ..    1
  Number of types of atoms   ..    1
  Scalar calculation (no spin-orbit term)
  Nonlocal part applied using Legendre polynomials
  Max number of non-local projectors over l and type   2
  Highest angular momentum +1 .......   3
  Max number of (l,n)   components ..   6
  Max number of (l,m,n) components ..   6
 
 Pseudo-Core Charge Info: 
   Number of radial points for pseudo-core charge .. 2501
   XC core-correction treatment (optnlxccc) ........    1
   Radius for pseudo-core charge for each type ..... 
 
  - Atom type    1 has pseudo-core radius ..  5.9900
 
 Info on the Q-grid used for form factors in spline form: 
   Number of q-points for radial functions ffspl ..   3001
   Number of q-points for vlspl ...................   3001
   vloc is computed in Reciprocal Space
   model core charge treated in real-space
 
  XC functional for type 1 is 11
  Pseudo valence available: yes
 
 wfconv:     6 bands initialized randomly with npw=   466, for ikpt=     1
 wfconv:     6 bands initialized randomly with npw=   466, for ikpt=     2
 wfconv:     6 bands initialized randomly with npw=   458, for ikpt=     3
 wfconv:     6 bands initialized randomly with npw=   460, for ikpt=     4
 wfconv:     6 bands initialized randomly with npw=   461, for ikpt=     5
 wfconv:     6 bands initialized randomly with npw=   460, for ikpt=     6
 wfconv:     6 bands initialized randomly with npw=   461, for ikpt=     7
 wfconv:     6 bands initialized randomly with npw=   458, for ikpt=     8
 wfconv:     6 bands initialized randomly with npw=   461, for ikpt=     9
 wfconv:     6 bands initialized randomly with npw=   453, for ikpt=    10
 wfconv:     6 bands initialized randomly with npw=   449, for ikpt=    11
 wfconv:     6 bands initialized randomly with npw=   453, for ikpt=    12
 wfconv:     6 bands initialized randomly with npw=   453, for ikpt=    13
 wfconv:     6 bands initialized randomly with npw=   453, for ikpt=    14
 wfconv:     6 bands initialized randomly with npw=   456, for ikpt=    15
 wfconv:     6 bands initialized randomly with npw=   453, for ikpt=    16
 wfconv:     6 bands initialized randomly with npw=   453, for ikpt=    17
 wfconv:     6 bands initialized randomly with npw=   456, for ikpt=    18
 wfconv:     6 bands initialized randomly with npw=   449, for ikpt=    19
 wfconv:     6 bands initialized randomly with npw=   453, for ikpt=    20
 wfconv:     6 bands initialized randomly with npw=   453, for ikpt=    21
 wfconv:     6 bands initialized randomly with npw=   453, for ikpt=    22
 wfconv:     6 bands initialized randomly with npw=   453, for ikpt=    23
 wfconv:     6 bands initialized randomly with npw=   456, for ikpt=    24
 wfconv:     6 bands initialized randomly with npw=   451, for ikpt=    25
 wfconv:     6 bands initialized randomly with npw=   451, for ikpt=    26
 wfconv:     6 bands initialized randomly with npw=   453, for ikpt=    27
 wfconv:     6 bands initialized randomly with npw=   454, for ikpt=    28
 wfconv:     6 bands initialized randomly with npw=   455, for ikpt=    29
 wfconv:     6 bands initialized randomly with npw=   457, for ikpt=    30
 wfconv:     6 bands initialized randomly with npw=   455, for ikpt=    31
 wfconv:     6 bands initialized randomly with npw=   455, for ikpt=    32
 wfconv:     6 bands initialized randomly with npw=   455, for ikpt=    33
 wfconv:     6 bands initialized randomly with npw=   457, for ikpt=    34
 wfconv:     6 bands initialized randomly with npw=   455, for ikpt=    35
 wfconv:     6 bands initialized randomly with npw=   455, for ikpt=    36
 wfconv:     6 bands initialized randomly with npw=   453, for ikpt=    37
 wfconv:     6 bands initialized randomly with npw=   457, for ikpt=    38
 wfconv:     6 bands initialized randomly with npw=   454, for ikpt=    39
 wfconv:     6 bands initialized randomly with npw=   451, for ikpt=    40
 wfconv:     6 bands initialized randomly with npw=   454, for ikpt=    41
 wfconv:     6 bands initialized randomly with npw=   455, for ikpt=    42
_setup2: Arith. and geom. avg. npw (full set) are     455.907     455.889
 initro: for itypat=  1, take pseudo charge density from pp file
 
================================================================================
 
=== [ionmov= 2] Broyden-Fletcher-Goldfard-Shanno method (forces)            
================================================================================
 
--- Iteration: ( 1/15) Internal Cycle: (1/1)
--------------------------------------------------------------------------------
 
 Cartesian coordinates (xcart) [bohr]
  0.00000000000000E+00  0.00000000000000E+00  0.00000000000000E+00
  2.72120563135533E+00  2.83458919932846E+00  2.83458919932846E+00
 Reduced coordinates (xred)
  0.00000000000000E+00  0.00000000000000E+00  0.00000000000000E+00
  2.40000000000000E-01  2.60000000000000E-01  2.40000000000000E-01
 Scale of Primitive Cell (acell) [bohr]
  1.13383567973139E+01  1.13383567973139E+01  1.13383567973139E+01
 Real space primitive translations (rprimd) [bohr]
  5.66917839865693E+00  5.66917839865693E+00  0.00000000000000E+00
  0.00000000000000E+00  5.66917839865693E+00  5.66917839865693E+00
  5.66917839865693E+00  0.00000000000000E+00  5.66917839865693E+00
 Unitary Cell Volume (ucvol) [Bohr^3]=  3.64410067486860E+02
 Angles (23,13,12)= [degrees]
  6.00000000000000E+01  6.00000000000000E+01  6.00000000000000E+01
 Lengths [Bohr]
  8.01742897889321E+00  8.01742897889321E+00  8.01742897889321E+00
 
---SELF-CONSISTENT-FIELD CONVERGENCE--------------------------------------------
 
 getcut: wavevector=  0.0000  0.0000  0.0000  ngfft=  24  24  24
         ecut(hartree)=      8.000   => boxcut(ratio)=   2.35107
 
 getcut : COMMENT -
  Note that boxcut > 2.2 ; recall that boxcut=Gcut(box)/Gcut(sphere) = 2
  is sufficient for exact treatment of convolution.
  Such a large boxcut is a waste : you could raise ecut
  e.g. ecut=   11.055083 Hartrees makes boxcut=2
 
 
 ITER STEP NUMBER     1
 vtorho: nnsclo_now=2, note that nnsclo,dbl_nnsclo,istep=0 0 1
 Total charge density [el/Bohr^3]
      Maximum=    7.2835E-02  at reduced coord.    0.0833    0.7500    0.0833
      Minimum=    1.6176E-03  at reduced coord.    0.7500    0.7500    0.7500
   Integrated=    8.0000E+00
 ETOT  1  -8.4302575788811    -8.430E+00 1.672E-02 8.581E-01
 scprqt: <Vxc>= -3.0020543E-01 hartree
 
 Simple mixing update:
  residual square of the potential:   0.529857938081174
 scfcv_core: previous iteration took  2.59 [s]
 
 ITER STEP NUMBER     2
 vtorho: nnsclo_now=2, note that nnsclo,dbl_nnsclo,istep=0 0 2
 Total charge density [el/Bohr^3]
      Maximum=    7.1314E-02  at reduced coord.    0.0833    0.7500    0.0833
      Minimum=    1.6371E-03  at reduced coord.    0.7500    0.7500    0.7500
   Integrated=    8.0000E+00
 ETOT  2  -8.4318913504767    -1.634E-03 1.444E-03 2.827E-02
 scprqt: <Vxc>= -3.0100296E-01 hartree
 
 Pulay update with  1 previous iterations:
 mixing of old trial potential: alpha(m:m-4)=   1.17     -0.172
 scfcv_core: previous iteration took  2.54 [s]
 
 ITER STEP NUMBER     3
 vtorho: nnsclo_now=1, note that nnsclo,dbl_nnsclo,istep=0 0 3
 Total charge density [el/Bohr^3]
      Maximum=    7.1067E-02  at reduced coord.    0.0833    0.7500    0.0833
      Minimum=    1.6383E-03  at reduced coord.    0.7500    0.7500    0.7500
   Integrated=    8.0000E+00
 ETOT  3  -8.4319023081509    -1.096E-05 4.734E-04 9.413E-04
 scprqt: <Vxc>= -3.0116721E-01 hartree
 
 Pulay update with  2 previous iterations:
 mixing of old trial potential: alpha(m:m-4)=   1.22     -0.250      0.321E-01
 scfcv_core: previous iteration took  1.30 [s]
 
 ITER STEP NUMBER     4
 vtorho: nnsclo_now=1, note that nnsclo,dbl_nnsclo,istep=0 0 4
 Total charge density [el/Bohr^3]
      Maximum=    7.1074E-02  at reduced coord.    0.0833    0.7500    0.0833
      Minimum=    1.6345E-03  at reduced coord.    0.7500    0.7500    0.7500
   Integrated=    8.0000E+00
 ETOT  4  -8.4319024155106    -1.074E-07 5.425E-04 9.547E-05
 scprqt: <Vxc>= -3.0115116E-01 hartree
 
 Pulay update with  3 previous iterations:
 mixing of old trial potential: alpha(m:m-4)=   1.48     -0.542      0.709E-01 -0.893E-02
 scfcv_core: previous iteration took  1.28 [s]
 
 ITER STEP NUMBER     5
 vtorho: nnsclo_now=1, note that nnsclo,dbl_nnsclo,istep=0 0 5
 Total charge density [el/Bohr^3]
      Maximum=    7.1079E-02  at reduced coord.    0.0833    0.7500    0.0833
      Minimum=    1.6328E-03  at reduced coord.    0.7500    0.7500    0.7500
   Integrated=    8.0000E+00
 ETOT  5  -8.4319024354636    -1.995E-08 1.085E-04 2.375E-06
 scprqt: <Vxc>= -3.0114037E-01 hartree
 
 Pulay update with  4 previous iterations:
 mixing of old trial potential: alpha(m:m-4)=   1.26     -0.335      0.807E-01 -0.753E-02  0.122E-02
 scfcv_core: previous iteration took  1.21 [s]
 
 ITER STEP NUMBER     6
 vtorho: nnsclo_now=1, note that nnsclo,dbl_nnsclo,istep=0 0 6
 Total charge density [el/Bohr^3]
      Maximum=    7.1080E-02  at reduced coord.    0.0833    0.7500    0.0833
      Minimum=    1.6326E-03  at reduced coord.    0.7500    0.7500    0.7500
   Integrated=    8.0000E+00
 ETOT  6  -8.4319024361916    -7.281E-10 1.508E-04 4.975E-08
 scprqt: <Vxc>= -3.0113830E-01 hartree
 
 Pulay update with  5 previous iterations:
 mixing of old trial potential: alpha(m:m-4)=   1.21     -0.224      0.231E-01 -0.499E-02  0.155E-03
 scfcv_core: previous iteration took  1.29 [s]
 
 ITER STEP NUMBER     7
 vtorho: nnsclo_now=1, note that nnsclo,dbl_nnsclo,istep=0 0 7
 Total charge density [el/Bohr^3]
      Maximum=    7.1080E-02  at reduced coord.    0.0833    0.7500    0.0833
      Minimum=    1.6326E-03  at reduced coord.    0.7500    0.7500    0.7500
   Integrated=    8.0000E+00
 ETOT  7  -8.4319024362029    -1.128E-11 6.981E-05 4.572E-10
 scprqt: <Vxc>= -3.0113802E-01 hartree
 
 Pulay update with  6 previous iterations:
 mixing of old trial potential: alpha(m:m-4)=   1.25     -0.284      0.397E-01 -0.261E-02  0.747E-03
 scfcv_core: previous iteration took  1.33 [s]
 
 ITER STEP NUMBER     8
 vtorho: nnsclo_now=1, note that nnsclo,dbl_nnsclo,istep=0 0 8
 Total charge density [el/Bohr^3]
      Maximum=    7.1080E-02  at reduced coord.    0.0833    0.7500    0.0833
      Minimum=    1.6326E-03  at reduced coord.    0.7500    0.7500    0.7500
   Integrated=    8.0000E+00
 ETOT  8  -8.4319024362030    -9.237E-14 4.503E-05 2.226E-12
 scprqt: <Vxc>= -3.0113800E-01 hartree
 
 At SCF step    8       vres2   =  2.23E-12 < tolvrs=  1.00E-10 =>converged.
 
 Cartesian components of stress tensor (hartree/bohr^3)
  sigma(1 1)=  4.43170585E-04  sigma(3 2)= -3.84395333E-06
  sigma(2 2)=  4.41780114E-04  sigma(3 1)=  0.00000000E+00
  sigma(3 3)=  4.41780114E-04  sigma(2 1)=  0.00000000E+00
 
 
   fftdatar_write: About to write data to: opto_TIM1_DEN with iomode: IO_MODE_FORTRAN
 IO operation completed. cpu:  0.00 [s] , wall:  0.01 [s]
- Creating HDf5 file with MPI-IO support: opto_GSR.nc
 Write iteration in HIST netCDF file
 
---OUTPUT-----------------------------------------------------------------------
 
 Cartesian coordinates (xcart) [bohr]
  0.00000000000000E+00  0.00000000000000E+00  0.00000000000000E+00
  2.72120563135533E+00  2.83458919932846E+00  2.83458919932846E+00
 Reduced coordinates (xred)
  0.00000000000000E+00  0.00000000000000E+00  0.00000000000000E+00
  2.40000000000000E-01  2.60000000000000E-01  2.40000000000000E-01
 Cartesian forces (fcart) [Ha/bohr]; max,rms= 8.60618E-03 4.96878E-03 (free atoms)
 -8.60618260991509E-03  1.30104260698261E-18 -1.30104260698261E-18
  8.60618260991509E-03 -1.30104260698261E-18  1.30104260698261E-18
 Reduced forces (fred)
  4.87899845470275E-02  0.00000000000000E+00  4.87899845470275E-02
 -4.87899845470275E-02  0.00000000000000E+00 -4.87899845470275E-02
 Scale of Primitive Cell (acell) [bohr]
  1.13383567973139E+01  1.13383567973139E+01  1.13383567973139E+01
 Real space primitive translations (rprimd) [bohr]
  5.66917839865693E+00  5.66917839865693E+00  0.00000000000000E+00
  0.00000000000000E+00  5.66917839865693E+00  5.66917839865693E+00
  5.66917839865693E+00  0.00000000000000E+00  5.66917839865693E+00
 Unitary Cell Volume (ucvol) [Bohr^3]=  3.64410067486860E+02
 Angles (23,13,12)= [degrees]
  6.00000000000000E+01  6.00000000000000E+01  6.00000000000000E+01
 Lengths [Bohr]
  8.01742897889321E+00  8.01742897889321E+00  8.01742897889321E+00
 Stress tensor in cartesian coordinates (strten) [Ha/bohr^3]
  4.43170585302333E-04  0.00000000000000E+00  0.00000000000000E+00
  0.00000000000000E+00  4.41780113685530E-04 -3.84395332704503E-06
  0.00000000000000E+00 -3.84395332704503E-06  4.41780113685530E-04
 Total energy (etotal) [Ha]= -8.43190243620301E+00
 fconv : at Broyd/MD step   1, gradients have not converged yet. 
  max grad (force/stress) = 4.4317E-02 > tolmxf= 1.0000E-08 ha/bohr (free atoms)
 
Inverse hessian has been initialized.
 EXIT:           1           1
 mover: previous time step took 13.40 [s]
 
--- Iteration: ( 2/15) Internal Cycle: (1/1)
--------------------------------------------------------------------------------
 
 Cartesian coordinates (xcart) [bohr]
 -8.49176240038144E-03  2.13960522476436E-18  8.67361737988404E-19
  2.69351864498444E+00  2.79767500688155E+00  2.79767500688155E+00
 Reduced coordinates (xred)
 -7.59032615021778E-04  7.59032615021778E-04 -7.59032615021778E-04
  2.40759032615022E-01  2.59240967384978E-01  2.40759032615022E-01
 Scale of Primitive Cell (acell) [bohr]
  7.91100364802932E+00  7.91301987568825E+00  7.91100364802932E+00
 Real space primitive translations (rprimd) [bohr]
  5.59380600538345E+00  5.59404249033306E+00  1.30752343002747E-03
  0.00000000000000E+00  5.59535001376309E+00  5.59535001376309E+00
  5.59380600538345E+00  1.30752343002752E-03  5.59404249033306E+00
 Unitary Cell Volume (ucvol) [Bohr^3]=  3.50097407165873E+02
 Angles (23,13,12)= [degrees]
  5.99915688184948E+01  5.99859339276514E+01  5.99915688184948E+01
 Lengths [Bohr]
  7.91100364802932E+00  7.91301987568825E+00  7.91100364802932E+00
 
---SELF-CONSISTENT-FIELD CONVERGENCE--------------------------------------------
 
 getcut: wavevector=  0.0000  0.0000  0.0000  ngfft=  24  24  24
         ecut(hartree)=      8.000   => boxcut(ratio)=   2.38209
 
 getcut : COMMENT -
  Note that boxcut > 2.2 ; recall that boxcut=Gcut(box)/Gcut(sphere) = 2
  is sufficient for exact treatment of convolution.
  Such a large boxcut is a waste : you could raise ecut
  e.g. ecut=   11.348742 Hartrees makes boxcut=2
 
 
 ITER STEP NUMBER     1
 vtorho: nnsclo_now=2, note that nnsclo,dbl_nnsclo,istep=0 0 1
 Total charge density [el/Bohr^3]
      Maximum=    7.3643E-02  at reduced coord.    0.0833    0.7500    0.0833
      Minimum=    1.6683E-03  at reduced coord.    0.7500    0.7500    0.7500
   Integrated=    8.0000E+00
 ETOT  1  -8.4379304916118    -8.438E+00 2.047E+00 9.549E-01
 scprqt: <Vxc>= -3.0509053E-01 hartree
 
 Simple mixing update:
  residual square of the potential:   0.530836648663664
 scfcv_core: previous iteration took  2.52 [s]
 
 ITER STEP NUMBER     2
 vtorho: nnsclo_now=2, note that nnsclo,dbl_nnsclo,istep=0 0 2
 Total charge density [el/Bohr^3]
      Maximum=    7.2823E-02  at reduced coord.    0.0833    0.7500    0.0833
      Minimum=    1.7421E-03  at reduced coord.    0.7500    0.7500    0.7500
   Integrated=    8.0000E+00
 ETOT  2  -8.4381854747458    -2.550E-04 1.257E-03 7.319E-02
 scprqt: <Vxc>= -3.0595623E-01 hartree
 
 Pulay update with  1 previous iterations:
 mixing of old trial potential: alpha(m:m-4)=   1.08     -0.794E-01
 scfcv_core: previous iteration took  1.49 [s]
 
 ITER STEP NUMBER     3
 vtorho: nnsclo_now=1, note that nnsclo,dbl_nnsclo,istep=0 0 3
 Total charge density [el/Bohr^3]
      Maximum=    7.2636E-02  at reduced coord.    0.0833    0.7500    0.0833
      Minimum=    1.7726E-03  at reduced coord.    0.7500    0.7500    0.7500
   Integrated=    8.0000E+00
 ETOT  3  -8.4382086604529    -2.319E-05 2.648E-04 1.015E-02
 scprqt: <Vxc>= -3.0624043E-01 hartree
 
 Pulay update with  2 previous iterations:
 mixing of old trial potential: alpha(m:m-4)=   1.59     -0.604      0.120E-01
 scfcv_core: previous iteration took  0.66 [s]
 
 ITER STEP NUMBER     4
 vtorho: nnsclo_now=1, note that nnsclo,dbl_nnsclo,istep=0 0 4
 Total charge density [el/Bohr^3]
      Maximum=    7.2567E-02  at reduced coord.    0.0833    0.7500    0.0833
      Minimum=    1.7907E-03  at reduced coord.    0.7500    0.7500    0.7500
   Integrated=    8.0000E+00
 ETOT  4  -8.4382114880986    -2.828E-06 1.130E-04 7.538E-05
 scprqt: <Vxc>= -3.0638350E-01 hartree
 
 Pulay update with  3 previous iterations:
 mixing of old trial potential: alpha(m:m-4)=   1.32     -0.474      0.152     -0.165E-02
 scfcv_core: previous iteration took  0.85 [s]
 
 ITER STEP NUMBER     5
 vtorho: nnsclo_now=1, note that nnsclo,dbl_nnsclo,istep=0 0 5
 Total charge density [el/Bohr^3]
      Maximum=    7.2568E-02  at reduced coord.    0.0833    0.7500    0.0833
      Minimum=    1.7922E-03  at reduced coord.    0.7500    0.7500    0.7500
   Integrated=    8.0000E+00
 ETOT  5  -8.4382114974757    -9.377E-09 1.034E-04 3.489E-07
 scprqt: <Vxc>= -3.0638906E-01 hartree
 
 Pulay update with  4 previous iterations:
 mixing of old trial potential: alpha(m:m-4)=   1.21     -0.271      0.822E-01 -0.258E-01  0.242E-03
 scfcv_core: previous iteration took  0.80 [s]
 
 ITER STEP NUMBER     6
 vtorho: nnsclo_now=1, note that nnsclo,dbl_nnsclo,istep=0 0 6
 Total charge density [el/Bohr^3]
      Maximum=    7.2568E-02  at reduced coord.    0.0833    0.7500    0.0833
      Minimum=    1.7923E-03  at reduced coord.    0.7500    0.7500    0.7500
   Integrated=    8.0000E+00
 ETOT  6  -8.4382114975205    -4.486E-11 8.470E-05 5.175E-09
 scprqt: <Vxc>= -3.0638929E-01 hartree
 
 Pulay update with  5 previous iterations:
 mixing of old trial potential: alpha(m:m-4)=   1.17     -0.197      0.362E-01 -0.101E-01  0.326E-02
 scfcv_core: previous iteration took  0.84 [s]
 
 ITER STEP NUMBER     7
 vtorho: nnsclo_now=1, note that nnsclo,dbl_nnsclo,istep=0 0 7
 Total charge density [el/Bohr^3]
      Maximum=    7.2568E-02  at reduced coord.    0.0833    0.7500    0.0833
      Minimum=    1.7923E-03  at reduced coord.    0.7500    0.7500    0.7500
   Integrated=    8.0000E+00
 ETOT  7  -8.4382114975212    -7.105E-13 4.582E-05 1.051E-10
 scprqt: <Vxc>= -3.0638923E-01 hartree
 
 Pulay update with  6 previous iterations:
 mixing of old trial potential: alpha(m:m-4)=   1.16     -0.163      0.806E-02 -0.163E-02  0.275E-03
 scfcv_core: previous iteration took  0.68 [s]
 
 ITER STEP NUMBER     8
 vtorho: nnsclo_now=1, note that nnsclo,dbl_nnsclo,istep=0 0 8
 Total charge density [el/Bohr^3]
      Maximum=    7.2568E-02  at reduced coord.    0.0833    0.7500    0.0833
      Minimum=    1.7923E-03  at reduced coord.    0.7500    0.7500    0.7500
   Integrated=    8.0000E+00
 ETOT  8  -8.4382114975212    -1.421E-14 6.888E-05 1.365E-12
 scprqt: <Vxc>= -3.0638924E-01 hartree
 
 At SCF step    8       vres2   =  1.36E-12 < tolvrs=  1.00E-10 =>converged.
 
 Cartesian components of stress tensor (hartree/bohr^3)
  sigma(1 1)=  4.18520230E-04  sigma(3 2)= -7.10164996E-06
  sigma(2 2)=  4.17294524E-04  sigma(3 1)=  0.00000000E+00
  sigma(3 3)=  4.17294524E-04  sigma(2 1)=  0.00000000E+00
 
 
   fftdatar_write: About to write data to: opto_TIM2_DEN with iomode: IO_MODE_FORTRAN
 IO operation completed. cpu:  0.00 [s] , wall:  0.00 [s]
- Creating HDf5 file with MPI-IO support: opto_GSR.nc
 Write iteration in HIST netCDF file
 
---OUTPUT-----------------------------------------------------------------------
 
 Cartesian coordinates (xcart) [bohr]
 -8.49176240038144E-03  2.13960522476436E-18  8.67361737988404E-19
  2.69351864498444E+00  2.79767500688155E+00  2.79767500688155E+00
 Reduced coordinates (xred)
 -7.59032615021778E-04  7.59032615021778E-04 -7.59032615021778E-04
  2.40759032615022E-01  2.59240967384978E-01  2.40759032615022E-01
 Cartesian forces (fcart) [Ha/bohr]; max,rms= 7.83828E-03 4.52543E-03 (free atoms)
 -7.83828088281639E-03 -8.67361737988404E-19  8.67361737988404E-19
  7.83828088281639E-03  8.67361737988404E-19 -8.67361737988404E-19
 Reduced forces (fred)
  4.38458226741806E-02  0.00000000000000E+00  4.38458226741805E-02
 -4.38458226741806E-02  0.00000000000000E+00 -4.38458226741805E-02
 Scale of Primitive Cell (acell) [bohr]
  7.91100364802932E+00  7.91301987568825E+00  7.91100364802932E+00
 Real space primitive translations (rprimd) [bohr]
  5.59380600538345E+00  5.59404249033306E+00  1.30752343002747E-03
  0.00000000000000E+00  5.59535001376309E+00  5.59535001376309E+00
  5.59380600538345E+00  1.30752343002752E-03  5.59404249033306E+00
 Unitary Cell Volume (ucvol) [Bohr^3]=  3.50097407165873E+02
 Angles (23,13,12)= [degrees]
  5.99915688184948E+01  5.99859339276514E+01  5.99915688184948E+01
 Lengths [Bohr]
  7.91100364802932E+00  7.91301987568825E+00  7.91100364802932E+00
 Stress tensor in cartesian coordinates (strten) [Ha/bohr^3]
  4.18520230341489E-04  0.00000000000000E+00  0.00000000000000E+00
  0.00000000000000E+00  4.17294524030484E-04 -7.10164995870396E-06
  0.00000000000000E+00 -7.10164995870396E-06  4.17294524030485E-04
 Total energy (etotal) [Ha]= -8.43821149752124E+00
 
 Difference of energy with previous step (new-old):
           Absolute (Ha)=-6.30906E-03
           Relative     =-7.47957E-04
 fconv : at Broyd/MD step   2, gradients have not converged yet. 
  max grad (force/stress) = 4.1852E-02 > tolmxf= 1.0000E-08 ha/bohr (free atoms)
 
 EXIT:           1           1
 mover: previous time step took  9.12 [s]
 
--- Iteration: ( 3/15) Internal Cycle: (1/1)
--------------------------------------------------------------------------------
 
 Cartesian coordinates (xcart) [bohr]
 -7.88917807557498E-02 -6.04442711160669E-18  1.38777878078145E-17
  2.40950557274783E+00  2.44209931733070E+00  2.44209931733070E+00
 Reduced coordinates (xred)
 -8.12405188986554E-03  8.12405188986554E-03 -8.12405188986554E-03
  2.48124051889865E-01  2.51875948110135E-01  2.48124051889865E-01
 Scale of Primitive Cell (acell) [bohr]
  6.86838388129034E+00  6.90729995046230E+00  6.86838388129034E+00
 Real space primitive translations (rprimd) [bohr]
  4.85544539998350E+00  4.85784443603983E+00  2.63541986215663E-02
  0.00000000000000E+00  4.88419863466139E+00  4.88419863466139E+00
  4.85544539998350E+00  2.63541986215663E-02  4.85784443603983E+00
 Unitary Cell Volume (ucvol) [Bohr^3]=  2.29157193443924E+02
 Angles (23,13,12)= [degrees]
  5.98123934973779E+01  5.96571403951353E+01  5.98123934973779E+01
 Lengths [Bohr]
  6.86838388129034E+00  6.90729995046230E+00  6.86838388129034E+00
 
---SELF-CONSISTENT-FIELD CONVERGENCE--------------------------------------------
 
 getcut: wavevector=  0.0000  0.0000  0.0000  ngfft=  24  24  24
         ecut(hartree)=      8.000   => boxcut(ratio)=   2.72893
 
 getcut : COMMENT -
  Note that boxcut > 2.2 ; recall that boxcut=Gcut(box)/Gcut(sphere) = 2
  is sufficient for exact treatment of convolution.
  Such a large boxcut is a waste : you could raise ecut
  e.g. ecut=   14.894146 Hartrees makes boxcut=2
 
 
 ITER STEP NUMBER     1
 vtorho: nnsclo_now=2, note that nnsclo,dbl_nnsclo,istep=0 0 1
 Total charge density [el/Bohr^3]
      Maximum=    1.1868E-01  at reduced coord.    0.1250    0.1250    0.6250
      Minimum=    2.4410E-03  at reduced coord.    0.2500    0.2500    0.2500
   Integrated=    8.0000E+00
 ETOT  1  -8.4205702589959    -8.421E+00 6.362E+02 5.239E+01
 scprqt: <Vxc>= -3.5563003E-01 hartree
 
 Simple mixing update:
  residual square of the potential:    19.5233128396056
 scfcv_core: previous iteration took  1.66 [s]
 
 ITER STEP NUMBER     2
 vtorho: nnsclo_now=2, note that nnsclo,dbl_nnsclo,istep=0 0 2
 Total charge density [el/Bohr^3]
      Maximum=    1.0553E-01  at reduced coord.    0.1250    0.1250    0.6250
      Minimum=    2.3241E-03  at reduced coord.    0.2500    0.2500    0.2500
   Integrated=    8.0000E+00
 ETOT  2  -8.4397236116969    -1.915E-02 6.124E-01 3.427E+00
 scprqt: <Vxc>= -3.6266545E-01 hartree
 
 Pulay update with  1 previous iterations:
 mixing of old trial potential: alpha(m:m-4)=   1.26     -0.257
 scfcv_core: previous iteration took  1.55 [s]
 
 ITER STEP NUMBER     3
 vtorho: nnsclo_now=1, note that nnsclo,dbl_nnsclo,istep=0 0 3
 Total charge density [el/Bohr^3]
      Maximum=    1.0367E-01  at reduced coord.    0.1250    0.1250    0.6250
      Minimum=    2.3123E-03  at reduced coord.    0.2500    0.2500    0.2500
   Integrated=    8.0000E+00
 ETOT  3  -8.4407177200941    -9.941E-04 9.300E-02 7.886E-02
 scprqt: <Vxc>= -3.6454106E-01 hartree
 
 Pulay update with  2 previous iterations:
 mixing of old trial potential: alpha(m:m-4)=   1.28     -0.326      0.431E-01
 scfcv_core: previous iteration took  0.83 [s]
 
 ITER STEP NUMBER     4
 vtorho: nnsclo_now=1, note that nnsclo,dbl_nnsclo,istep=0 0 4
 Total charge density [el/Bohr^3]
      Maximum=    1.0364E-01  at reduced coord.    0.1250    0.1250    0.6250
      Minimum=    2.3140E-03  at reduced coord.    0.2500    0.2500    0.2500
   Integrated=    8.0000E+00
 ETOT  4  -8.4407308158134    -1.310E-05 1.123E-01 5.446E-04
 scprqt: <Vxc>= -3.6474756E-01 hartree
 
 Pulay update with  3 previous iterations:
 mixing of old trial potential: alpha(m:m-4)=   1.13     -0.147      0.196E-01 -0.264E-02
 scfcv_core: previous iteration took  0.83 [s]
 
 ITER STEP NUMBER     5
 vtorho: nnsclo_now=1, note that nnsclo,dbl_nnsclo,istep=0 0 5
 Total charge density [el/Bohr^3]
      Maximum=    1.0363E-01  at reduced coord.    0.1250    0.1250    0.6250
      Minimum=    2.3136E-03  at reduced coord.    0.2500    0.2500    0.2500
   Integrated=    8.0000E+00
 ETOT  5  -8.4407308899191    -7.411E-08 2.289E-02 4.079E-06
 scprqt: <Vxc>= -3.6476269E-01 hartree
 
 Pulay update with  4 previous iterations:
 mixing of old trial potential: alpha(m:m-4)=   1.18     -0.191      0.147E-01 -0.710E-03  0.169E-03
 scfcv_core: previous iteration took  0.70 [s]
 
 ITER STEP NUMBER     6
 vtorho: nnsclo_now=1, note that nnsclo,dbl_nnsclo,istep=0 0 6
 Total charge density [el/Bohr^3]
      Maximum=    1.0363E-01  at reduced coord.    0.1250    0.1250    0.6250
      Minimum=    2.3136E-03  at reduced coord.    0.2500    0.2500    0.2500
   Integrated=    8.0000E+00
 ETOT  6  -8.4407308904226    -5.035E-10 1.703E-02 2.320E-08
 scprqt: <Vxc>= -3.6476215E-01 hartree
 
 Pulay update with  5 previous iterations:
 mixing of old trial potential: alpha(m:m-4)=   1.13     -0.149      0.200E-01 -0.113E-02 -0.257E-04
 scfcv_core: previous iteration took  0.99 [s]
 
 ITER STEP NUMBER     7
 vtorho: nnsclo_now=1, note that nnsclo,dbl_nnsclo,istep=0 0 7
 Total charge density [el/Bohr^3]
      Maximum=    1.0363E-01  at reduced coord.    0.1250    0.1250    0.6250
      Minimum=    2.3136E-03  at reduced coord.    0.2500    0.2500    0.2500
   Integrated=    8.0000E+00
 ETOT  7  -8.4407308904254    -2.762E-12 8.561E-04 4.245E-10
 scprqt: <Vxc>= -3.6476217E-01 hartree
 
 Pulay update with  6 previous iterations:
 mixing of old trial potential: alpha(m:m-4)=   1.16     -0.173      0.137E-01 -0.183E-02  0.453E-04
 scfcv_core: previous iteration took  1.08 [s]
 
 ITER STEP NUMBER     8
 vtorho: nnsclo_now=1, note that nnsclo,dbl_nnsclo,istep=0 0 8
 Total charge density [el/Bohr^3]
      Maximum=    1.0363E-01  at reduced coord.    0.1250    0.1250    0.6250
      Minimum=    2.3136E-03  at reduced coord.    0.2500    0.2500    0.2500
   Integrated=    8.0000E+00
 ETOT  8  -8.4407308904254    -6.040E-14 1.773E-03 1.558E-11
 scprqt: <Vxc>= -3.6476217E-01 hartree
 
 At SCF step    8       vres2   =  1.56E-11 < tolvrs=  1.00E-10 =>converged.
 
 Cartesian components of stress tensor (hartree/bohr^3)
  sigma(1 1)= -8.43964473E-04  sigma(3 2)=  1.60552275E-04
  sigma(2 2)= -8.48328545E-04  sigma(3 1)=  0.00000000E+00
  sigma(3 3)= -8.48328545E-04  sigma(2 1)=  0.00000000E+00
 
 
   fftdatar_write: About to write data to: opto_TIM3_DEN with iomode: IO_MODE_FORTRAN
 IO operation completed. cpu:  0.00 [s] , wall:  0.01 [s]
- Creating HDf5 file with MPI-IO support: opto_GSR.nc
 Write iteration in HIST netCDF file
 
---OUTPUT-----------------------------------------------------------------------
 
 Cartesian coordinates (xcart) [bohr]
 -7.88917807557498E-02 -6.04442711160669E-18  1.38777878078145E-17
  2.40950557274783E+00  2.44209931733070E+00  2.44209931733070E+00
 Reduced coordinates (xred)
 -8.12405188986554E-03  8.12405188986554E-03 -8.12405188986554E-03
  2.48124051889865E-01  2.51875948110135E-01  2.48124051889865E-01
 Cartesian forces (fcart) [Ha/bohr]; max,rms= 1.59819E-02 9.22713E-03 (free atoms)
  1.59818503014401E-02  3.46944695195361E-18 -3.46944695195361E-18
 -1.59818503014401E-02 -3.46944695195361E-18  3.46944695195361E-18
 Reduced forces (fred)
 -7.75990015293522E-02  0.00000000000000E+00 -7.75990015293522E-02
  7.75990015293522E-02  0.00000000000000E+00  7.75990015293522E-02
 Scale of Primitive Cell (acell) [bohr]
  6.86838388129034E+00  6.90729995046230E+00  6.86838388129034E+00
 Real space primitive translations (rprimd) [bohr]
  4.85544539998350E+00  4.85784443603983E+00  2.63541986215663E-02
  0.00000000000000E+00  4.88419863466139E+00  4.88419863466139E+00
  4.85544539998350E+00  2.63541986215663E-02  4.85784443603983E+00
 Unitary Cell Volume (ucvol) [Bohr^3]=  2.29157193443924E+02
 Angles (23,13,12)= [degrees]
  5.98123934973779E+01  5.96571403951353E+01  5.98123934973779E+01
 Lengths [Bohr]
  6.86838388129034E+00  6.90729995046230E+00  6.86838388129034E+00
 Stress tensor in cartesian coordinates (strten) [Ha/bohr^3]
 -8.43964472678711E-04  0.00000000000000E+00  0.00000000000000E+00
  0.00000000000000E+00 -8.48328544857520E-04  1.60552275117533E-04
  0.00000000000000E+00  1.60552275117533E-04 -8.48328544857520E-04
 Total energy (etotal) [Ha]= -8.44073089042542E+00
 
 Difference of energy with previous step (new-old):
           Absolute (Ha)=-2.51939E-03
           Relative     =-2.98525E-04
 fconv : at Broyd/MD step   3, gradients have not converged yet. 
  max grad (force/stress) = 8.4833E-02 > tolmxf= 1.0000E-08 ha/bohr (free atoms)
 
 EXIT:           1           1
 mover: previous time step took  8.86 [s]
 
--- Iteration: ( 4/15) Internal Cycle: (1/1)
--------------------------------------------------------------------------------
 
 Cartesian coordinates (xcart) [bohr]
 -3.99804046255496E-02 -1.05320076661600E-17  6.93889390390723E-18
  2.57293233726449E+00  2.63858483039510E+00  2.63858483039510E+00
 Reduced coordinates (xred)
 -3.78818760296612E-03  3.78818760296612E-03 -3.78818760296612E-03
  2.43788187602966E-01  2.56211812397034E-01  2.43788187602966E-01
 Scale of Primitive Cell (acell) [bohr]
  7.46382538754143E+00  7.46304490523334E+00  7.46382538754143E+00
 Real space primitive translations (rprimd) [bohr]
  5.27698319299779E+00  5.27845963634183E+00 -1.28997555162093E-03
  0.00000000000000E+00  5.27716966079021E+00  5.27716966079021E+00
  5.27698319299779E+00 -1.28997555162092E-03  5.27845963634183E+00
 Unitary Cell Volume (ucvol) [Bohr^3]=  2.94056030622141E+02
 Angles (23,13,12)= [degrees]
  6.00034590435411E+01  6.00254246859801E+01  6.00034590435411E+01
 Lengths [Bohr]
  7.46382538754143E+00  7.46304490523334E+00  7.46382538754143E+00
 
---SELF-CONSISTENT-FIELD CONVERGENCE--------------------------------------------
 
 getcut: wavevector=  0.0000  0.0000  0.0000  ngfft=  24  24  24
         ecut(hartree)=      8.000   => boxcut(ratio)=   2.52546
 
 getcut : COMMENT -
  Note that boxcut > 2.2 ; recall that boxcut=Gcut(box)/Gcut(sphere) = 2
  is sufficient for exact treatment of convolution.
  Such a large boxcut is a waste : you could raise ecut
  e.g. ecut=   12.755849 Hartrees makes boxcut=2
 
 
 ITER STEP NUMBER     1
 vtorho: nnsclo_now=2, note that nnsclo,dbl_nnsclo,istep=0 0 1
 Total charge density [el/Bohr^3]
      Maximum=    7.4248E-02  at reduced coord.    0.1250    0.5417    0.1667
      Minimum=    2.4872E-03  at reduced coord.    0.0000    0.0000    0.0000
   Integrated=    8.0000E+00
 ETOT  1  -8.4472668016920    -8.447E+00 1.075E-02 2.322E+01
 scprqt: <Vxc>= -3.3591026E-01 hartree
 
 Simple mixing update:
  residual square of the potential:    9.85235809567116
 scfcv_core: previous iteration took  1.39 [s]
 
 ITER STEP NUMBER     2
 vtorho: nnsclo_now=2, note that nnsclo,dbl_nnsclo,istep=0 0 2
 Total charge density [el/Bohr^3]
      Maximum=    7.8945E-02  at reduced coord.    0.0833    0.7083    0.0833
      Minimum=    2.5249E-03  at reduced coord.    0.0000    0.0000    0.0000
   Integrated=    8.0000E+00
 ETOT  2  -8.4559402330065    -8.673E-03 4.297E-04 1.615E+00
 scprqt: <Vxc>= -3.3150376E-01 hartree
 
 Pulay update with  1 previous iterations:
 mixing of old trial potential: alpha(m:m-4)=   1.16     -0.163
 scfcv_core: previous iteration took  1.66 [s]
 
 ITER STEP NUMBER     3
 vtorho: nnsclo_now=1, note that nnsclo,dbl_nnsclo,istep=0 0 3
 Total charge density [el/Bohr^3]
      Maximum=    7.9934E-02  at reduced coord.    0.0833    0.7083    0.0833
      Minimum=    2.5208E-03  at reduced coord.    0.0000    0.0000    0.0000
   Integrated=    8.0000E+00
 ETOT  3  -8.4564359852528    -4.958E-04 1.019E-04 1.242E-01
 scprqt: <Vxc>= -3.3021668E-01 hartree
 
 Pulay update with  2 previous iterations:
 mixing of old trial potential: alpha(m:m-4)=   1.41     -0.429      0.157E-01
 scfcv_core: previous iteration took  1.01 [s]
 
 ITER STEP NUMBER     4
 vtorho: nnsclo_now=1, note that nnsclo,dbl_nnsclo,istep=0 0 4
 Total charge density [el/Bohr^3]
      Maximum=    8.0137E-02  at reduced coord.    0.0833    0.7083    0.0833
      Minimum=    2.5210E-03  at reduced coord.    0.0000    0.0000    0.0000
   Integrated=    8.0000E+00
 ETOT  4  -8.4564658749866    -2.989E-05 4.521E-05 8.260E-04
 scprqt: <Vxc>= -3.2980134E-01 hartree
 
 Pulay update with  3 previous iterations:
 mixing of old trial potential: alpha(m:m-4)=   1.27     -0.355      0.843E-01 -0.166E-02
 scfcv_core: previous iteration took  0.96 [s]
 
 ITER STEP NUMBER     5
 vtorho: nnsclo_now=1, note that nnsclo,dbl_nnsclo,istep=0 0 5
 Total charge density [el/Bohr^3]
      Maximum=    8.0134E-02  at reduced coord.    0.0833    0.7083    0.0833
      Minimum=    2.5221E-03  at reduced coord.    0.0000    0.0000    0.0000
   Integrated=    8.0000E+00
 ETOT  5  -8.4564659717117    -9.673E-08 1.021E-05 3.546E-06
 scprqt: <Vxc>= -3.2978379E-01 hartree
 
 Pulay update with  4 previous iterations:
 mixing of old trial potential: alpha(m:m-4)=   1.18     -0.226      0.547E-01 -0.117E-01  0.170E-03
 scfcv_core: previous iteration took  0.78 [s]
 
 ITER STEP NUMBER     6
 vtorho: nnsclo_now=1, note that nnsclo,dbl_nnsclo,istep=0 0 6
 Total charge density [el/Bohr^3]
      Maximum=    8.0135E-02  at reduced coord.    0.0833    0.7083    0.0833
      Minimum=    2.5221E-03  at reduced coord.    0.0000    0.0000    0.0000
   Integrated=    8.0000E+00
 ETOT  6  -8.4564659722102    -4.984E-10 1.033E-05 3.628E-08
 scprqt: <Vxc>= -3.2978438E-01 hartree
 
 Pulay update with  5 previous iterations:
 mixing of old trial potential: alpha(m:m-4)=   1.15     -0.170      0.261E-01 -0.646E-02  0.134E-02
 scfcv_core: previous iteration took  0.85 [s]
 
 ITER STEP NUMBER     7
 vtorho: nnsclo_now=1, note that nnsclo,dbl_nnsclo,istep=0 0 7
 Total charge density [el/Bohr^3]
      Maximum=    8.0135E-02  at reduced coord.    0.0833    0.7083    0.0833
      Minimum=    2.5221E-03  at reduced coord.    0.0000    0.0000    0.0000
   Integrated=    8.0000E+00
 ETOT  7  -8.4564659722142    -4.063E-12 7.479E-06 8.318E-10
 scprqt: <Vxc>= -3.2978436E-01 hartree
 
 Pulay update with  6 previous iterations:
 mixing of old trial potential: alpha(m:m-4)=   1.15     -0.160      0.846E-02 -0.105E-02  0.279E-03
 scfcv_core: previous iteration took  0.97 [s]
 
 ITER STEP NUMBER     8
 vtorho: nnsclo_now=1, note that nnsclo,dbl_nnsclo,istep=0 0 8
 Total charge density [el/Bohr^3]
      Maximum=    8.0135E-02  at reduced coord.    0.0833    0.7083    0.0833
      Minimum=    2.5221E-03  at reduced coord.    0.0000    0.0000    0.0000
   Integrated=    8.0000E+00
 ETOT  8  -8.4564659722144    -1.954E-13 5.685E-06 4.048E-11
 scprqt: <Vxc>= -3.2978437E-01 hartree
 
 At SCF step    8       vres2   =  4.05E-11 < tolvrs=  1.00E-10 =>converged.
 
 Cartesian components of stress tensor (hartree/bohr^3)
  sigma(1 1)=  1.68823995E-04  sigma(3 2)= -1.26525558E-05
  sigma(2 2)=  1.69448984E-04  sigma(3 1)=  0.00000000E+00
  sigma(3 3)=  1.69448984E-04  sigma(2 1)=  0.00000000E+00
 
 
   fftdatar_write: About to write data to: opto_TIM4_DEN with iomode: IO_MODE_FORTRAN
 IO operation completed. cpu:  0.00 [s] , wall:  0.01 [s]
- Creating HDf5 file with MPI-IO support: opto_GSR.nc
 Write iteration in HIST netCDF file
 
---OUTPUT-----------------------------------------------------------------------
 
 Cartesian coordinates (xcart) [bohr]
 -3.99804046255496E-02 -1.05320076661600E-17  6.93889390390723E-18
  2.57293233726449E+00  2.63858483039510E+00  2.63858483039510E+00
 Reduced coordinates (xred)
 -3.78818760296612E-03  3.78818760296612E-03 -3.78818760296612E-03
  2.43788187602966E-01  2.56211812397034E-01  2.43788187602966E-01
 Cartesian forces (fcart) [Ha/bohr]; max,rms= 3.10630E-03 1.79342E-03 (free atoms)
 -3.10629587722259E-03 -2.16840434497101E-19  2.16840434497101E-19
  3.10629587722259E-03  2.16840434497101E-19 -2.16840434497101E-19
 Reduced forces (fred)
  1.63918711365819E-02  0.00000000000000E+00  1.63918711365819E-02
 -1.63918711365819E-02  0.00000000000000E+00 -1.63918711365819E-02
 Scale of Primitive Cell (acell) [bohr]
  7.46382538754143E+00  7.46304490523334E+00  7.46382538754143E+00
 Real space primitive translations (rprimd) [bohr]
  5.27698319299779E+00  5.27845963634183E+00 -1.28997555162093E-03
  0.00000000000000E+00  5.27716966079021E+00  5.27716966079021E+00
  5.27698319299779E+00 -1.28997555162092E-03  5.27845963634183E+00
 Unitary Cell Volume (ucvol) [Bohr^3]=  2.94056030622141E+02
 Angles (23,13,12)= [degrees]
  6.00034590435411E+01  6.00254246859801E+01  6.00034590435411E+01
 Lengths [Bohr]
  7.46382538754143E+00  7.46304490523334E+00  7.46382538754143E+00
 Stress tensor in cartesian coordinates (strten) [Ha/bohr^3]
  1.68823994956248E-04  0.00000000000000E+00  0.00000000000000E+00
  0.00000000000000E+00  1.69448984038148E-04 -1.26525557874588E-05
  0.00000000000000E+00 -1.26525557874588E-05  1.69448984038148E-04
 Total energy (etotal) [Ha]= -8.45646597221441E+00
 
 Difference of energy with previous step (new-old):
           Absolute (Ha)=-1.57351E-02
           Relative     =-1.86245E-03
 fconv : at Broyd/MD step   4, gradients have not converged yet. 
  max grad (force/stress) = 1.6945E-02 > tolmxf= 1.0000E-08 ha/bohr (free atoms)
 
 EXIT:           1           1
 mover: previous time step took  9.08 [s]
 
--- Iteration: ( 5/15) Internal Cycle: (1/1)
--------------------------------------------------------------------------------
 
 Cartesian coordinates (xcart) [bohr]
 -4.80554782468446E-02 -2.98183126004299E-17 -6.93889390390723E-18
  2.53976043097343E+00  2.59643592871418E+00  2.59643592871418E+00
 Reduced coordinates (xred)
 -4.62868397264378E-03  4.62868397264378E-03 -4.62868397264378E-03
  2.44628683972644E-01  2.55371316027357E-01  2.44628683972644E-01
 Scale of Primitive Cell (acell) [bohr]
  7.34245168987672E+00  7.34382980844074E+00  7.34245168987672E+00
 Real space primitive translations (rprimd) [bohr]
  5.19105198484706E+00  5.19274263680484E+00  1.29220623516321E-04
  0.00000000000000E+00  5.19287185742835E+00  5.19287185742835E+00
  5.19105198484706E+00  1.29220623516377E-04  5.19274263680484E+00
 Unitary Cell Volume (ucvol) [Bohr^3]=  2.79949032313456E+02
 Angles (23,13,12)= [degrees]
  5.99937910083280E+01  6.00091245316333E+01  5.99937910083280E+01
 Lengths [Bohr]
  7.34245168987672E+00  7.34382980844074E+00  7.34245168987672E+00
 
---SELF-CONSISTENT-FIELD CONVERGENCE--------------------------------------------
 
 getcut: wavevector=  0.0000  0.0000  0.0000  ngfft=  24  24  24
         ecut(hartree)=      8.000   => boxcut(ratio)=   2.56672
 
 getcut : COMMENT -
  Note that boxcut > 2.2 ; recall that boxcut=Gcut(box)/Gcut(sphere) = 2
  is sufficient for exact treatment of convolution.
  Such a large boxcut is a waste : you could raise ecut
  e.g. ecut=   13.176105 Hartrees makes boxcut=2
 
 
 ITER STEP NUMBER     1
 vtorho: nnsclo_now=2, note that nnsclo,dbl_nnsclo,istep=0 0 1
 Total charge density [el/Bohr^3]
      Maximum=    8.4276E-02  at reduced coord.    0.0833    0.7083    0.0833
      Minimum=    2.5315E-03  at reduced coord.    0.0000    0.0000    0.0000
   Integrated=    8.0000E+00
 ETOT  1  -8.4576972767813    -8.458E+00 9.701E+02 9.912E-01
 scprqt: <Vxc>= -3.3525039E-01 hartree
 
 Simple mixing update:
  residual square of the potential:   0.446007226214797
 scfcv_core: previous iteration took  1.37 [s]
 
 ITER STEP NUMBER     2
 vtorho: nnsclo_now=2, note that nnsclo,dbl_nnsclo,istep=0 0 2
 Total charge density [el/Bohr^3]
      Maximum=    8.3209E-02  at reduced coord.    0.0833    0.7083    0.0833
      Minimum=    2.5203E-03  at reduced coord.    0.0000    0.0000    0.0000
   Integrated=    8.0000E+00
 ETOT  2  -8.4580330227049    -3.357E-04 1.381E-02 7.181E-02
 scprqt: <Vxc>= -3.3618017E-01 hartree
 
 Pulay update with  1 previous iterations:
 mixing of old trial potential: alpha(m:m-4)=   1.16     -0.157
 scfcv_core: previous iteration took  1.57 [s]
 
 ITER STEP NUMBER     3
 vtorho: nnsclo_now=1, note that nnsclo,dbl_nnsclo,istep=0 0 3
 Total charge density [el/Bohr^3]
      Maximum=    8.2989E-02  at reduced coord.    0.0833    0.7083    0.0833
      Minimum=    2.5196E-03  at reduced coord.    0.0000    0.0000    0.0000
   Integrated=    8.0000E+00
 ETOT  3  -8.4580546729085    -2.165E-05 8.013E-05 5.204E-03
 scprqt: <Vxc>= -3.3645200E-01 hartree
 
 Pulay update with  2 previous iterations:
 mixing of old trial potential: alpha(m:m-4)=   1.40     -0.414      0.155E-01
 scfcv_core: previous iteration took  0.74 [s]
 
 ITER STEP NUMBER     4
 vtorho: nnsclo_now=1, note that nnsclo,dbl_nnsclo,istep=0 0 4
 Total charge density [el/Bohr^3]
      Maximum=    8.2947E-02  at reduced coord.    0.0833    0.7083    0.0833
      Minimum=    2.5195E-03  at reduced coord.    0.0000    0.0000    0.0000
   Integrated=    8.0000E+00
 ETOT  4  -8.4580558843165    -1.211E-06 2.078E-05 3.036E-05
 scprqt: <Vxc>= -3.3653401E-01 hartree
 
 Pulay update with  3 previous iterations:
 mixing of old trial potential: alpha(m:m-4)=   1.24     -0.312      0.703E-01 -0.112E-02
 scfcv_core: previous iteration took  0.67 [s]
 
 ITER STEP NUMBER     5
 vtorho: nnsclo_now=1, note that nnsclo,dbl_nnsclo,istep=0 0 5
 Total charge density [el/Bohr^3]
      Maximum=    8.2948E-02  at reduced coord.    0.0833    0.7083    0.0833
      Minimum=    2.5193E-03  at reduced coord.    0.0000    0.0000    0.0000
   Integrated=    8.0000E+00
 ETOT  5  -8.4580558880410    -3.724E-09 2.764E-05 1.684E-07
 scprqt: <Vxc>= -3.3653669E-01 hartree
 
 Pulay update with  4 previous iterations:
 mixing of old trial potential: alpha(m:m-4)=   1.23     -0.277      0.593E-01 -0.125E-01  0.118E-03
 scfcv_core: previous iteration took  0.82 [s]
 
 ITER STEP NUMBER     6
 vtorho: nnsclo_now=1, note that nnsclo,dbl_nnsclo,istep=0 0 6
 Total charge density [el/Bohr^3]
      Maximum=    8.2948E-02  at reduced coord.    0.0833    0.7083    0.0833
      Minimum=    2.5193E-03  at reduced coord.    0.0000    0.0000    0.0000
   Integrated=    8.0000E+00
 ETOT  6  -8.4580558880610    -1.998E-11 1.397E-05 1.125E-09
 scprqt: <Vxc>= -3.3653671E-01 hartree
 
 Pulay update with  5 previous iterations:
 mixing of old trial potential: alpha(m:m-4)=   1.15     -0.183      0.414E-01 -0.865E-02  0.185E-02
 scfcv_core: previous iteration took  0.82 [s]
 
 ITER STEP NUMBER     7
 vtorho: nnsclo_now=1, note that nnsclo,dbl_nnsclo,istep=0 0 7
 Total charge density [el/Bohr^3]
      Maximum=    8.2948E-02  at reduced coord.    0.0833    0.7083    0.0833
      Minimum=    2.5193E-03  at reduced coord.    0.0000    0.0000    0.0000
   Integrated=    8.0000E+00
 ETOT  7  -8.4580558880611    -1.421E-13 8.627E-06 2.785E-11
 scprqt: <Vxc>= -3.3653669E-01 hartree
 
 At SCF step    7       vres2   =  2.78E-11 < tolvrs=  1.00E-10 =>converged.
 
 Cartesian components of stress tensor (hartree/bohr^3)
  sigma(1 1)=  4.37647462E-05  sigma(3 2)= -4.44963124E-06
  sigma(2 2)=  4.48312162E-05  sigma(3 1)=  0.00000000E+00
  sigma(3 3)=  4.48312162E-05  sigma(2 1)=  0.00000000E+00
 
 
   fftdatar_write: About to write data to: opto_TIM5_DEN with iomode: IO_MODE_FORTRAN
 IO operation completed. cpu:  0.00 [s] , wall:  0.00 [s]
- Creating HDf5 file with MPI-IO support: opto_GSR.nc
 Write iteration in HIST netCDF file
 
---OUTPUT-----------------------------------------------------------------------
 
 Cartesian coordinates (xcart) [bohr]
 -4.80554782468446E-02 -2.98183126004299E-17 -6.93889390390723E-18
  2.53976043097343E+00  2.59643592871418E+00  2.59643592871418E+00
 Reduced coordinates (xred)
 -4.62868397264378E-03  4.62868397264378E-03 -4.62868397264378E-03
  2.44628683972644E-01  2.55371316027357E-01  2.44628683972644E-01
 Cartesian forces (fcart) [Ha/bohr]; max,rms= 1.00654E-03 5.81129E-04 (free atoms)
 -1.00654439222445E-03 -5.42101086242752E-20  5.42101086242752E-20
  1.00654439222445E-03  5.42101086242752E-20 -5.42101086242752E-20
 Reduced forces (fred)
  5.22502426509343E-03  0.00000000000000E+00  5.22502426509343E-03
 -5.22502426509343E-03  0.00000000000000E+00 -5.22502426509343E-03
 Scale of Primitive Cell (acell) [bohr]
  7.34245168987672E+00  7.34382980844074E+00  7.34245168987672E+00
 Real space primitive translations (rprimd) [bohr]
  5.19105198484706E+00  5.19274263680484E+00  1.29220623516321E-04
  0.00000000000000E+00  5.19287185742835E+00  5.19287185742835E+00
  5.19105198484706E+00  1.29220623516377E-04  5.19274263680484E+00
 Unitary Cell Volume (ucvol) [Bohr^3]=  2.79949032313456E+02
 Angles (23,13,12)= [degrees]
  5.99937910083280E+01  6.00091245316333E+01  5.99937910083280E+01
 Lengths [Bohr]
  7.34245168987672E+00  7.34382980844074E+00  7.34245168987672E+00
 Stress tensor in cartesian coordinates (strten) [Ha/bohr^3]
  4.37647461657448E-05  0.00000000000000E+00  0.00000000000000E+00
  0.00000000000000E+00  4.48312162478286E-05 -4.44963123882760E-06
  0.00000000000000E+00 -4.44963123882760E-06  4.48312162478291E-05
 Total energy (etotal) [Ha]= -8.45805588806112E+00
 
 Difference of energy with previous step (new-old):
           Absolute (Ha)=-1.58992E-03
           Relative     =-1.87994E-04
 fconv : at Broyd/MD step   5, gradients have not converged yet. 
  max grad (force/stress) = 4.4831E-03 > tolmxf= 1.0000E-08 ha/bohr (free atoms)
 
 EXIT:           1           1
 mover: previous time step took  7.16 [s]
 
--- Iteration: ( 6/15) Internal Cycle: (1/1)
--------------------------------------------------------------------------------
 
 Cartesian coordinates (xcart) [bohr]
 -5.09447278341822E-02 -3.32358787843642E-17 -1.38777878078145E-17
  2.52884514882065E+00  2.58244438344230E+00  2.58244438344230E+00
 Reduced coordinates (xred)
 -4.93431236245409E-03  4.93431236245408E-03 -4.93431236245408E-03
  2.44934312362454E-01  2.55065687637546E-01  2.44934312362454E-01
 Scale of Primitive Cell (acell) [bohr]
  7.30171944809776E+00  7.30425574227666E+00  7.30171944809776E+00
 Real space primitive translations (rprimd) [bohr]
  5.16229254372181E+00  5.16389790855349E+00  9.90858331120993E-04
  0.00000000000000E+00  5.16488876688460E+00  5.16488876688460E+00
  5.16229254372181E+00  9.90858331121010E-04  5.16389790855349E+00
 Unitary Cell Volume (ucvol) [Bohr^3]=  2.75313740493678E+02
 Angles (23,13,12)= [degrees]
  5.99885088991715E+01  5.99975873356980E+01  5.99885088991715E+01
 Lengths [Bohr]
  7.30171944809776E+00  7.30425574227666E+00  7.30171944809776E+00
 
---SELF-CONSISTENT-FIELD CONVERGENCE--------------------------------------------
 
 getcut: wavevector=  0.0000  0.0000  0.0000  ngfft=  24  24  24
         ecut(hartree)=      8.000   => boxcut(ratio)=   2.58063
 
 getcut : COMMENT -
  Note that boxcut > 2.2 ; recall that boxcut=Gcut(box)/Gcut(sphere) = 2
  is sufficient for exact treatment of convolution.
  Such a large boxcut is a waste : you could raise ecut
  e.g. ecut=   13.319266 Hartrees makes boxcut=2
 
 
 ITER STEP NUMBER     1
 vtorho: nnsclo_now=2, note that nnsclo,dbl_nnsclo,istep=0 0 1
 Total charge density [el/Bohr^3]
      Maximum=    8.4393E-02  at reduced coord.    0.1250    0.1667    0.5417
      Minimum=    2.5251E-03  at reduced coord.    0.0000    0.0000    0.0000
   Integrated=    8.0000E+00
 ETOT  1  -8.4581093052769    -8.458E+00 6.280E-02 1.172E-01
 scprqt: <Vxc>= -3.3841918E-01 hartree
 
 Simple mixing update:
  residual square of the potential:   5.466309121266413E-002
 scfcv_core: previous iteration took  1.43 [s]
 
 ITER STEP NUMBER     2
 vtorho: nnsclo_now=2, note that nnsclo,dbl_nnsclo,istep=0 0 2
 Total charge density [el/Bohr^3]
      Maximum=    8.3969E-02  at reduced coord.    0.0833    0.7083    0.0833
      Minimum=    2.5214E-03  at reduced coord.    0.0000    0.0000    0.0000
   Integrated=    8.0000E+00
 ETOT  2  -8.4581477290141    -3.842E-05 6.221E-04 7.820E-03
 scprqt: <Vxc>= -3.3873026E-01 hartree
 
 Pulay update with  1 previous iterations:
 mixing of old trial potential: alpha(m:m-4)=   1.14     -0.144
 scfcv_core: previous iteration took  1.54 [s]
 
 ITER STEP NUMBER     3
 vtorho: nnsclo_now=1, note that nnsclo,dbl_nnsclo,istep=0 0 3
 Total charge density [el/Bohr^3]
      Maximum=    8.3897E-02  at reduced coord.    0.0833    0.7083    0.0833
      Minimum=    2.5212E-03  at reduced coord.    0.0000    0.0000    0.0000
   Integrated=    8.0000E+00
 ETOT  3  -8.4581500618701    -2.333E-06 2.404E-05 5.811E-04
 scprqt: <Vxc>= -3.3881782E-01 hartree
 
 Pulay update with  2 previous iterations:
 mixing of old trial potential: alpha(m:m-4)=   1.40     -0.416      0.135E-01
 scfcv_core: previous iteration took  0.78 [s]
 
 ITER STEP NUMBER     4
 vtorho: nnsclo_now=1, note that nnsclo,dbl_nnsclo,istep=0 0 4
 Total charge density [el/Bohr^3]
      Maximum=    8.3883E-02  at reduced coord.    0.0833    0.7083    0.0833
      Minimum=    2.5212E-03  at reduced coord.    0.0000    0.0000    0.0000
   Integrated=    8.0000E+00
 ETOT  4  -8.4581501979167    -1.360E-07 5.389E-06 3.209E-06
 scprqt: <Vxc>= -3.3884494E-01 hartree
 
 Pulay update with  3 previous iterations:
 mixing of old trial potential: alpha(m:m-4)=   1.24     -0.312      0.714E-01 -0.101E-02
 scfcv_core: previous iteration took  0.56 [s]
 
 ITER STEP NUMBER     5
 vtorho: nnsclo_now=1, note that nnsclo,dbl_nnsclo,istep=0 0 5
 Total charge density [el/Bohr^3]
      Maximum=    8.3883E-02  at reduced coord.    0.0833    0.7083    0.0833
      Minimum=    2.5211E-03  at reduced coord.    0.0000    0.0000    0.0000
   Integrated=    8.0000E+00
 ETOT  5  -8.4581501983086    -3.919E-10 1.049E-05 1.738E-08
 scprqt: <Vxc>= -3.3884581E-01 hartree
 
 Pulay update with  4 previous iterations:
 mixing of old trial potential: alpha(m:m-4)=   1.23     -0.272      0.585E-01 -0.125E-01  0.104E-03
 scfcv_core: previous iteration took  0.83 [s]
 
 ITER STEP NUMBER     6
 vtorho: nnsclo_now=1, note that nnsclo,dbl_nnsclo,istep=0 0 6
 Total charge density [el/Bohr^3]
      Maximum=    8.3883E-02  at reduced coord.    0.0833    0.7083    0.0833
      Minimum=    2.5211E-03  at reduced coord.    0.0000    0.0000    0.0000
   Integrated=    8.0000E+00
 ETOT  6  -8.4581501983107    -2.119E-12 4.421E-06 1.100E-10
 scprqt: <Vxc>= -3.3884581E-01 hartree
 
 Pulay update with  5 previous iterations:
 mixing of old trial potential: alpha(m:m-4)=   1.16     -0.195      0.434E-01 -0.914E-02  0.196E-02
 scfcv_core: previous iteration took  0.82 [s]
 
 ITER STEP NUMBER     7
 vtorho: nnsclo_now=1, note that nnsclo,dbl_nnsclo,istep=0 0 7
 Total charge density [el/Bohr^3]
      Maximum=    8.3883E-02  at reduced coord.    0.0833    0.7083    0.0833
      Minimum=    2.5211E-03  at reduced coord.    0.0000    0.0000    0.0000
   Integrated=    8.0000E+00
 ETOT  7  -8.4581501983107    -3.553E-15 9.126E-06 2.649E-12
 scprqt: <Vxc>= -3.3884580E-01 hartree
 
 At SCF step    7       vres2   =  2.65E-12 < tolvrs=  1.00E-10 =>converged.
 
 Cartesian components of stress tensor (hartree/bohr^3)
  sigma(1 1)= -6.66786784E-06  sigma(3 2)=  4.40613280E-07
  sigma(2 2)= -5.62709031E-06  sigma(3 1)=  0.00000000E+00
  sigma(3 3)= -5.62709031E-06  sigma(2 1)=  0.00000000E+00
 
 
   fftdatar_write: About to write data to: opto_TIM6_DEN with iomode: IO_MODE_FORTRAN
 IO operation completed. cpu:  0.00 [s] , wall:  0.00 [s]
- Creating HDf5 file with MPI-IO support: opto_GSR.nc
 Write iteration in HIST netCDF file
 
---OUTPUT-----------------------------------------------------------------------
 
 Cartesian coordinates (xcart) [bohr]
 -5.09447278341822E-02 -3.32358787843642E-17 -1.38777878078145E-17
  2.52884514882065E+00  2.58244438344230E+00  2.58244438344230E+00
 Reduced coordinates (xred)
 -4.93431236245409E-03  4.93431236245408E-03 -4.93431236245408E-03
  2.44934312362454E-01  2.55065687637546E-01  2.44934312362454E-01
 Cartesian forces (fcart) [Ha/bohr]; max,rms= 1.15107E-04 6.64569E-05 (free atoms)
 -1.15106728762414E-04  0.00000000000000E+00  0.00000000000000E+00
  1.15106728762414E-04  0.00000000000000E+00  0.00000000000000E+00
 Reduced forces (fred)
  5.94214607622419E-04  0.00000000000000E+00  5.94214607622419E-04
 -5.94214607622419E-04  0.00000000000000E+00 -5.94214607622419E-04
 Scale of Primitive Cell (acell) [bohr]
  7.30171944809776E+00  7.30425574227666E+00  7.30171944809776E+00
 Real space primitive translations (rprimd) [bohr]
  5.16229254372181E+00  5.16389790855349E+00  9.90858331120993E-04
  0.00000000000000E+00  5.16488876688460E+00  5.16488876688460E+00
  5.16229254372181E+00  9.90858331121010E-04  5.16389790855349E+00
 Unitary Cell Volume (ucvol) [Bohr^3]=  2.75313740493678E+02
 Angles (23,13,12)= [degrees]
  5.99885088991715E+01  5.99975873356980E+01  5.99885088991715E+01
 Lengths [Bohr]
  7.30171944809776E+00  7.30425574227666E+00  7.30171944809776E+00
 Stress tensor in cartesian coordinates (strten) [Ha/bohr^3]
 -6.66786784355149E-06  0.00000000000000E+00  0.00000000000000E+00
  0.00000000000000E+00 -5.62709030602808E-06  4.40613279946130E-07
  0.00000000000000E+00  4.40613279946130E-07 -5.62709030602808E-06
 Total energy (etotal) [Ha]= -8.45815019831069E+00
 
 Difference of energy with previous step (new-old):
           Absolute (Ha)=-9.43102E-05
           Relative     =-1.11503E-05
 fconv : at Broyd/MD step   6, gradients have not converged yet. 
  max grad (force/stress) = 6.6679E-04 > tolmxf= 1.0000E-08 ha/bohr (free atoms)
 
 EXIT:           1           1
 mover: previous time step took  7.16 [s]
 
--- Iteration: ( 7/15) Internal Cycle: (1/1)
--------------------------------------------------------------------------------
 
 Cartesian coordinates (xcart) [bohr]
 -5.08063993087793E-02 -1.72464378390448E-17  0.00000000000000E+00
  2.53029440977002E+00  2.58400204648559E+00  2.58400204648559E+00
 Reduced coordinates (xred)
 -4.91776357968303E-03  4.91776357968302E-03 -4.91776357968303E-03
  2.44917763579683E-01  2.55082236420317E-01  2.44917763579683E-01
 Scale of Primitive Cell (acell) [bohr]
  7.30630850999813E+00  7.30866147867949E+00  7.30630850999813E+00
 Real space primitive translations (rprimd) [bohr]
  5.16560002179426E+00  5.16708037530441E+00  9.23717666758040E-04
  0.00000000000000E+00  5.16800409297117E+00  5.16800409297117E+00
  5.16560002179426E+00  9.23717666758075E-04  5.16708037530441E+00
 Unitary Cell Volume (ucvol) [Bohr^3]=  2.75829804330304E+02
 Angles (23,13,12)= [degrees]
  5.99893462264824E+01  5.99976484056606E+01  5.99893462264824E+01
 Lengths [Bohr]
  7.30630850999813E+00  7.30866147867949E+00  7.30630850999813E+00
 
---SELF-CONSISTENT-FIELD CONVERGENCE--------------------------------------------
 
 getcut: wavevector=  0.0000  0.0000  0.0000  ngfft=  24  24  24
         ecut(hartree)=      8.000   => boxcut(ratio)=   2.57907
 
 getcut : COMMENT -
  Note that boxcut > 2.2 ; recall that boxcut=Gcut(box)/Gcut(sphere) = 2
  is sufficient for exact treatment of convolution.
  Such a large boxcut is a waste : you could raise ecut
  e.g. ecut=   13.303213 Hartrees makes boxcut=2
 
 
 ITER STEP NUMBER     1
[...]
  -0.23562   -0.02344    0.10583    0.10698    0.23694    0.27475
 kpt#   9, nband=  6, wtk=  0.00926, kpt= -0.2500 -0.0833  0.0833 (reduced coord)
  -0.24335    0.00875    0.07529    0.11790    0.24998    0.28092
 kpt#  10, nband=  6, wtk=  0.00926, kpt= -0.0833  0.5000  0.0000 (reduced coord)
  -0.19545   -0.09544    0.08884    0.10358    0.22814    0.27496
 kpt#  11, nband=  6, wtk=  0.00926, kpt= -0.1667 -0.4167  0.0000 (reduced coord)
  -0.21199   -0.05271    0.06543    0.08728    0.22867    0.30886
 kpt#  12, nband=  6, wtk=  0.00926, kpt= -0.0833 -0.4167  0.0833 (reduced coord)
  -0.20023   -0.07744    0.06069    0.09718    0.24890    0.27254
 kpt#  13, nband=  6, wtk=  0.00926, kpt= -0.2500 -0.3333  0.0000 (reduced coord)
  -0.22603   -0.00846    0.06845    0.07626    0.19969    0.25766
 kpt#  14, nband=  6, wtk=  0.00926, kpt= -0.1667 -0.3333  0.0833 (reduced coord)
  -0.21854   -0.02782    0.05003    0.08428    0.23267    0.29253
 kpt#  15, nband=  6, wtk=  0.00926, kpt= -0.0833 -0.3333  0.1667 (reduced coord)
  -0.20426   -0.05290    0.02675    0.09368    0.26341    0.28666
 kpt#  16, nband=  6, wtk=  0.00926, kpt= -0.3333 -0.2500  0.0000 (reduced coord)
  -0.22603   -0.00845    0.06845    0.07626    0.19969    0.25766
 kpt#  17, nband=  6, wtk=  0.00926, kpt= -0.1667 -0.2500  0.1667 (reduced coord)
  -0.21854   -0.02782    0.05003    0.08428    0.23267    0.29253
 kpt#  18, nband=  6, wtk=  0.00926, kpt= -0.0833 -0.2500  0.2500 (reduced coord)
  -0.20426   -0.05290    0.02675    0.09368    0.26341    0.28666
 kpt#  19, nband=  6, wtk=  0.00926, kpt= -0.4167 -0.1667  0.0000 (reduced coord)
  -0.21199   -0.05271    0.06543    0.08728    0.22867    0.30886
 kpt#  20, nband=  6, wtk=  0.00926, kpt= -0.3333 -0.1667  0.0833 (reduced coord)
  -0.21854   -0.02782    0.05003    0.08428    0.23267    0.29253
 kpt#  21, nband=  6, wtk=  0.00926, kpt= -0.0833 -0.1667  0.3333 (reduced coord)
  -0.20023   -0.07744    0.06069    0.09718    0.24889    0.27254
 kpt#  22, nband=  6, wtk=  0.00926, kpt=  0.5000 -0.0833  0.0000 (reduced coord)
  -0.19545   -0.09544    0.08884    0.10358    0.22814    0.27496
 kpt#  23, nband=  6, wtk=  0.00926, kpt= -0.4167 -0.0833  0.0833 (reduced coord)
  -0.20023   -0.07744    0.06069    0.09718    0.24890    0.27254
 kpt#  24, nband=  6, wtk=  0.00926, kpt= -0.3333 -0.0833  0.1667 (reduced coord)
  -0.20426   -0.05290    0.02675    0.09368    0.26341    0.28666
 kpt#  25, nband=  6, wtk=  0.00926, kpt= -0.0833  0.3333  0.0000 (reduced coord)
  -0.22069   -0.05411    0.08649    0.11738    0.23348    0.28491
 kpt#  26, nband=  6, wtk=  0.00926, kpt= -0.1667  0.4167  0.0000 (reduced coord)
  -0.18696   -0.09208    0.04527    0.09579    0.23471    0.30290
 kpt#  27, nband=  6, wtk=  0.00926, kpt= -0.2500  0.5000  0.0000 (reduced coord)
  -0.18279   -0.07884    0.02597    0.07372    0.21137    0.31819
 kpt#  28, nband=  6, wtk=  0.00926, kpt= -0.1667  0.5000  0.0833 (reduced coord)
  -0.17823   -0.09115    0.02813    0.07606    0.24198    0.29867
 kpt#  29, nband=  6, wtk=  0.00926, kpt= -0.3333 -0.4167  0.0000 (reduced coord)
  -0.19274   -0.05807    0.04872    0.06090    0.18825    0.22444
 kpt#  30, nband=  6, wtk=  0.00926, kpt= -0.2500 -0.4167  0.0833 (reduced coord)
  -0.18667   -0.06617    0.02995    0.05865    0.21865    0.26569
 kpt#  31, nband=  6, wtk=  0.00926, kpt= -0.1667 -0.4167  0.1667 (reduced coord)
  -0.17570   -0.08021    0.01234    0.05867    0.27324    0.29263
 kpt#  32, nband=  6, wtk=  0.00926, kpt= -0.0833 -0.4167  0.2500 (reduced coord)
  -0.16293   -0.09440    0.00089    0.06607    0.23362    0.34010
 kpt#  33, nband=  6, wtk=  0.00926, kpt= -0.4167 -0.3333  0.0000 (reduced coord)
  -0.19274   -0.05807    0.04872    0.06090    0.18825    0.22444
 kpt#  34, nband=  6, wtk=  0.00926, kpt= -0.2500 -0.3333  0.1667 (reduced coord)
  -0.18667   -0.06617    0.02995    0.05865    0.21865    0.26569
 kpt#  35, nband=  6, wtk=  0.00926, kpt= -0.1667 -0.3333  0.2500 (reduced coord)
  -0.17570   -0.08020    0.01234    0.05867    0.27324    0.29263
 kpt#  36, nband=  6, wtk=  0.00926, kpt= -0.0833 -0.3333  0.3333 (reduced coord)
  -0.16293   -0.09440    0.00089    0.06607    0.23362    0.34010
 kpt#  37, nband=  6, wtk=  0.00926, kpt=  0.5000 -0.2500  0.0000 (reduced coord)
  -0.18279   -0.07884    0.02597    0.07372    0.21137    0.31819
 kpt#  38, nband=  6, wtk=  0.00926, kpt= -0.4167 -0.2500  0.0833 (reduced coord)
  -0.18667   -0.06616    0.02995    0.05865    0.21865    0.26569
 kpt#  39, nband=  6, wtk=  0.00926, kpt= -0.1667 -0.2500  0.3333 (reduced coord)
  -0.17823   -0.09115    0.02813    0.07606    0.24198    0.29867
 kpt#  40, nband=  6, wtk=  0.00926, kpt=  0.4167 -0.1667  0.0000 (reduced coord)
  -0.18696   -0.09208    0.04527    0.09579    0.23471    0.30290
 kpt#  41, nband=  6, wtk=  0.00926, kpt=  0.5000 -0.1667  0.0833 (reduced coord)
  -0.17823   -0.09115    0.02813    0.07606    0.24198    0.29866
 kpt#  42, nband=  6, wtk=  0.00926, kpt= -0.4167 -0.1667  0.1667 (reduced coord)
  -0.17570   -0.08020    0.01234    0.05867    0.27324    0.29263
 kpt#  43, nband=  6, wtk=  0.00926, kpt=  0.3333 -0.0833  0.0000 (reduced coord)
  -0.22069   -0.05411    0.08650    0.11738    0.23348    0.28491
 kpt#  44, nband=  6, wtk=  0.00926, kpt=  0.4167 -0.0833  0.0833 (reduced coord)
  -0.20023   -0.07744    0.06069    0.09718    0.24890    0.27254
 kpt#  45, nband=  6, wtk=  0.00926, kpt=  0.5000 -0.0833  0.1667 (reduced coord)
  -0.17823   -0.09115    0.02813    0.07606    0.24198    0.29867
 kpt#  46, nband=  6, wtk=  0.00926, kpt= -0.4167 -0.0833  0.2500 (reduced coord)
  -0.16294   -0.09440    0.00089    0.06607    0.23362    0.34010
 kpt#  47, nband=  6, wtk=  0.00926, kpt= -0.0833  0.1667  0.0000 (reduced coord)
  -0.26024    0.04617    0.10351    0.14069    0.25151    0.26985
 kpt#  48, nband=  6, wtk=  0.00926, kpt= -0.1667  0.2500  0.0000 (reduced coord)
  -0.22733   -0.02351    0.04873    0.11975    0.25531    0.30040
 kpt#  49, nband=  6, wtk=  0.00926, kpt= -0.2500  0.3333  0.0000 (reduced coord)
  -0.18467   -0.07598    0.00869    0.09120    0.22930    0.34892
 kpt#  50, nband=  6, wtk=  0.00926, kpt= -0.3333  0.4167  0.0000 (reduced coord)
  -0.15325   -0.10352    0.00194    0.06664    0.20139    0.30765
 prteigrs : prtvol=0 or 1, do not print more k-points.
 
 Total charge density [el/Bohr^3]
      Maximum=    8.3747E-02  at reduced coord.    0.0833    0.7083    0.0833
 Next maximum=    8.3747E-02  at reduced coord.    0.0833    0.1250    0.0833
      Minimum=    2.5258E-03  at reduced coord.    0.0000    0.0000    0.0000
 Next minimum=    2.5259E-03  at reduced coord.    0.2500    0.2500    0.2500
   Integrated=    8.0000E+00
 
 Cartesian components of stress tensor (hartree/bohr^3)
  sigma(1 1)= -5.19949519E-09  sigma(3 2)= -2.49624326E-08
  sigma(2 2)=  2.39420970E-11  sigma(3 1)=  0.00000000E+00
  sigma(3 3)=  2.39420970E-11  sigma(2 1)=  0.00000000E+00
 
-Cartesian components of stress tensor (GPa)         [Pressure=  5.0522E-05 GPa]
- sigma(1 1)= -1.52974404E-04  sigma(3 2)= -7.34420000E-04
- sigma(2 2)=  7.04400695E-07  sigma(3 1)=  0.00000000E+00
- sigma(3 3)=  7.04400695E-07  sigma(2 1)=  0.00000000E+00
 
== END DATASET(S) ==============================================================
================================================================================
  
 -outvars: echo values of variables after computation  --------
 
 These variables are accessible in NetCDF format (opto_OUT.nc)

            acell      7.3068110183E+00  7.3067986681E+00  7.3068110183E+00 Bohr
              amu      2.80855000E+01
          dilatmx      1.05000000E+00
             ecut      8.00000000E+00 Hartree
           ecutsm      5.00000000E-01 Hartree
           etotal     -8.4581519189E+00
            fcart     -2.3632938637E-06  0.0000000000E+00  0.0000000000E+00
                       2.3632938637E-06  0.0000000000E+00  0.0000000000E+00
-          fftalg         312
           ionmov           2
              ixc          11
              kpt     -8.33333333E-02 -1.66666667E-01  0.00000000E+00
                      -1.66666667E-01 -8.33333333E-02  0.00000000E+00
                      -8.33333333E-02 -3.33333333E-01  0.00000000E+00
                      -1.66666667E-01 -2.50000000E-01  0.00000000E+00
                      -8.33333333E-02 -2.50000000E-01  8.33333333E-02
                      -2.50000000E-01 -1.66666667E-01  0.00000000E+00
                      -8.33333333E-02 -1.66666667E-01  1.66666667E-01
                      -3.33333333E-01 -8.33333333E-02  0.00000000E+00
                      -2.50000000E-01 -8.33333333E-02  8.33333333E-02
                      -8.33333333E-02  5.00000000E-01  0.00000000E+00
                      -1.66666667E-01 -4.16666667E-01  0.00000000E+00
                      -8.33333333E-02 -4.16666667E-01  8.33333333E-02
                      -2.50000000E-01 -3.33333333E-01  0.00000000E+00
                      -1.66666667E-01 -3.33333333E-01  8.33333333E-02
                      -8.33333333E-02 -3.33333333E-01  1.66666667E-01
                      -3.33333333E-01 -2.50000000E-01  0.00000000E+00
                      -1.66666667E-01 -2.50000000E-01  1.66666667E-01
                      -8.33333333E-02 -2.50000000E-01  2.50000000E-01
                      -4.16666667E-01 -1.66666667E-01  0.00000000E+00
                      -3.33333333E-01 -1.66666667E-01  8.33333333E-02
                      -8.33333333E-02 -1.66666667E-01  3.33333333E-01
                       5.00000000E-01 -8.33333333E-02  0.00000000E+00
                      -4.16666667E-01 -8.33333333E-02  8.33333333E-02
                      -3.33333333E-01 -8.33333333E-02  1.66666667E-01
                      -8.33333333E-02  3.33333333E-01  0.00000000E+00
                      -1.66666667E-01  4.16666667E-01  0.00000000E+00
                      -2.50000000E-01  5.00000000E-01  0.00000000E+00
                      -1.66666667E-01  5.00000000E-01  8.33333333E-02
                      -3.33333333E-01 -4.16666667E-01  0.00000000E+00
                      -2.50000000E-01 -4.16666667E-01  8.33333333E-02
                      -1.66666667E-01 -4.16666667E-01  1.66666667E-01
                      -8.33333333E-02 -4.16666667E-01  2.50000000E-01
                      -4.16666667E-01 -3.33333333E-01  0.00000000E+00
                      -2.50000000E-01 -3.33333333E-01  1.66666667E-01
                      -1.66666667E-01 -3.33333333E-01  2.50000000E-01
                      -8.33333333E-02 -3.33333333E-01  3.33333333E-01
                       5.00000000E-01 -2.50000000E-01  0.00000000E+00
                      -4.16666667E-01 -2.50000000E-01  8.33333333E-02
                      -1.66666667E-01 -2.50000000E-01  3.33333333E-01
                       4.16666667E-01 -1.66666667E-01  0.00000000E+00
                       5.00000000E-01 -1.66666667E-01  8.33333333E-02
                      -4.16666667E-01 -1.66666667E-01  1.66666667E-01
                       3.33333333E-01 -8.33333333E-02  0.00000000E+00
                       4.16666667E-01 -8.33333333E-02  8.33333333E-02
                       5.00000000E-01 -8.33333333E-02  1.66666667E-01
                      -4.16666667E-01 -8.33333333E-02  2.50000000E-01
                      -8.33333333E-02  1.66666667E-01  0.00000000E+00
                      -1.66666667E-01  2.50000000E-01  0.00000000E+00
                      -2.50000000E-01  3.33333333E-01  0.00000000E+00
                      -3.33333333E-01  4.16666667E-01  0.00000000E+00
                       outvar_i_n : Printing only first  50 k-points.
         kptrlatt        6   -6    6     -6    6    6     -6   -6    6
          kptrlen      6.80301408E+01
P           mkmem          42
            natom           2
            nband           6
            ngfft          24      24      24
             nkpt         126
             nsym           8
            ntime          15
           ntypat           1
              occ      2.000000  2.000000  2.000000  2.000000  0.000000  0.000000
          optcell           2
            rprim      7.0710621902E-01  7.0710734335E-01 -1.7573437194E-06
                       0.0000000000E+00  7.0710678119E-01  7.0710678119E-01
                       7.0710621902E-01 -1.7573437194E-06  7.0710734335E-01
           shiftk      5.00000000E-01  5.00000000E-01  5.00000000E-01
          spgroup          74
           strten     -5.1994951925E-09  2.3942097003E-11  2.3942097003E-11
                      -2.4962432625E-08  0.0000000000E+00  0.0000000000E+00
           symrel      1  0  0   0  1  0   0  0  1      -1  0  0   0 -1  0   0  0 -1
                       0 -1  1   0 -1  0   1 -1  0       0  1 -1   0  1  0  -1  1  0
                       0  0  1   0  1  0   1  0  0       0  0 -1   0 -1  0  -1  0  0
                       1 -1  0   0 -1  0   0 -1  1      -1  1  0   0  1  0   0  1 -1
            tnons      0.0000000  0.0000000  0.0000000     0.2400000  0.2600000  0.2400000
                       0.0000000  0.0000000  0.0000000     0.2400000  0.2600000  0.2400000
                       0.0000000  0.0000000  0.0000000     0.2400000  0.2600000  0.2400000
                       0.0000000  0.0000000  0.0000000     0.2400000  0.2600000  0.2400000
           tolmxf      1.00000000E-08
           tolvrs      1.00000000E-10
            typat      1  1
              wtk        0.00926    0.00926    0.00926    0.00926    0.00926    0.00926
                         0.00926    0.00926    0.00926    0.00926    0.00926    0.00926
                         0.00926    0.00926    0.00926    0.00926    0.00926    0.00926
                         0.00926    0.00926    0.00926    0.00926    0.00926    0.00926
                         0.00926    0.00926    0.00926    0.00926    0.00926    0.00926
                         0.00926    0.00926    0.00926    0.00926    0.00926    0.00926
                         0.00926    0.00926    0.00926    0.00926    0.00926    0.00926
                         0.00926    0.00926    0.00926    0.00926    0.00926    0.00926
                         0.00926    0.00926
                       outvars : Printing only first  50 k-points.
           xangst     -2.7338079389E-02  5.7352560145E-17  4.7734758588E-17
                       1.3397038676E+00  1.3670464723E+00  1.3670464723E+00
            xcart     -5.1661483045E-02  1.0838063169E-16  9.0205620751E-17
                       2.5316734089E+00  2.5833434435E+00  2.5833434435E+00
             xred     -4.9994743176E-03  4.9994743176E-03 -4.9994743176E-03
                       2.4499947432E-01  2.5500052568E-01  2.4499947432E-01
            znucl       14.00000
 
================================================================================
  

================================================================================

 Suggested references for the acknowledgment of ABINIT usage.

 The users of ABINIT have little formal obligations with respect to the ABINIT group
 (those specified in the GNU General Public License, http://www.gnu.org/copyleft/gpl.txt).
 However, it is common practice in the scientific literature,
 to acknowledge the efforts of people that have made the research possible.
 In this spirit, please find below suggested citations of work written by ABINIT developers,
 corresponding to implementations inside of ABINIT that you have used in the present run.
 Note also that it will be of great value to readers of publications presenting these results,
 to read papers enabling them to understand the theoretical formalism and details
 of the ABINIT implementation.
 For information on why they are suggested, see also https://docs.abinit.org/theory/acknowledgments.
-
- [1] Recent developments in the ABINIT software package.
- Computer Phys. Comm. 205, 106 (2016).
- X.Gonze, F.Jollet, F.Abreu Araujo, D.Adams, B.Amadon, T.Applencourt,
- C.Audouze, J.-M.Beuken, J.Bieder, A.Bokhanchuk, E.Bousquet, F.Bruneval
- D.Caliste, M.Cote, F.Dahm, F.Da Pieve, M.Delaveau, M.Di Gennaro,
- B.Dorado, C.Espejo, G.Geneste, L.Genovese, A.Gerossier, M.Giantomassi,
- Y.Gillet, D.R.Hamann, L.He, G.Jomard, J.Laflamme Janssen, S.Le Roux,
- A.Levitt, A.Lherbier, F.Liu, I.Lukacevic, A.Martin, C.Martins,
- M.J.T.Oliveira, S.Ponce, Y.Pouillon, T.Rangel, G.-M.Rignanese,
- A.H.Romero, B.Rousseau, O.Rubel, A.A.Shukri, M.Stankovski, M.Torrent,
- M.J.Van Setten, B.Van Troeye, M.J.Verstraete, D.Waroquier, J.Wiktor,
- B.Xu, A.Zhou, J.W.Zwanziger.
- Comment: the fourth generic paper describing the ABINIT project.
- Note that a version of this paper, that is not formatted for Computer Phys. Comm. 
- is available at https://www.abinit.org/about/ABINIT16.pdf .
- The licence allows the authors to put it on the Web.
- DOI and bibtex: see https://docs.abinit.org/theory/bibliography/#gonze2016
-
- [2] Optimized norm-conserving Vanderbilt pseudopotentials.
- D.R. Hamann, Phys. Rev. B 88, 085117 (2013).
- Comment: Some pseudopotential generated using the ONCVPSP code were used.
- DOI and bibtex: see https://docs.abinit.org/theory/bibliography/#hamann2013
-
- [3] ABINIT: First-principles approach of materials and nanosystem properties.
- Computer Phys. Comm. 180, 2582-2615 (2009).
- X. Gonze, B. Amadon, P.-M. Anglade, J.-M. Beuken, F. Bottin, P. Boulanger, F. Bruneval,
- D. Caliste, R. Caracas, M. Cote, T. Deutsch, L. Genovese, Ph. Ghosez, M. Giantomassi
- S. Goedecker, D.R. Hamann, P. Hermet, F. Jollet, G. Jomard, S. Leroux, M. Mancini, S. Mazevet,
- M.J.T. Oliveira, G. Onida, Y. Pouillon, T. Rangel, G.-M. Rignanese, D. Sangalli, R. Shaltaf,
- M. Torrent, M.J. Verstraete, G. Zerah, J.W. Zwanziger
- Comment: the third generic paper describing the ABINIT project.
- Note that a version of this paper, that is not formatted for Computer Phys. Comm. 
- is available at https://www.abinit.org/about/ABINIT_CPC_v10.pdf .
- The licence allows the authors to put it on the Web.
- DOI and bibtex: see https://docs.abinit.org/theory/bibliography/#gonze2009
-
- [4] A brief introduction to the ABINIT software package.
- Z. Kristallogr. 220, 558-562 (2005).
- X. Gonze, G.-M. Rignanese, M. Verstraete, J.-M. Beuken, Y. Pouillon, R. Caracas, F. Jollet,
- M. Torrent, G. Zerah, M. Mikami, Ph. Ghosez, M. Veithen, J.-Y. Raty, V. Olevano, F. Bruneval,
- L. Reining, R. Godby, G. Onida, D.R. Hamann, and D.C. Allan.
- Comment: the second generic paper describing the ABINIT project. Note that this paper
- should be cited especially if you are using the GW part of ABINIT, as several authors
- of this part are not in the list of authors of the first or third paper.
- The .pdf of the latter paper is available at https://www.abinit.org/about/zfk_0505-06_558-562.pdf.
- Note that it should not redistributed (Copyright by Oldenburg Wissenshaftverlag,
- the licence allows the authors to put it on the Web).
- DOI and bibtex: see https://docs.abinit.org/theory/bibliography/#gonze2005
-
- And optionally:
-
- [5] First-principles computation of material properties: the ABINIT software project. 
- X. Gonze, J.-M. Beuken, R. Caracas, F. Detraux, M. Fuchs, G.-M. Rignanese, L. Sindic,
- M. Verstraete, G. Zerah, F. Jollet, M. Torrent, A. Roy, M. Mikami, Ph. Ghosez, J.-Y. Raty, D.C. Allan.
- Computational Materials Science 25, 478-492 (2002). http://dx.doi.org/10.1016/S0927-0256(02)00325-7
- Comment: the original paper describing the ABINIT project.
- DOI and bibtex : see https://docs.abinit.org/theory/bibliography/#gonze2002
 Proc.   0 individual time (sec): cpu=         75.8  wall=        103.3
 
 Calculation completed.
.Delivered  13 WARNINGs and  16 COMMENTs to log file.

--- !FinalSummary
program: abinit
version: 8.11.13
start_datetime: Fri Jan 10 12:57:45 2020
end_datetime: Fri Jan 10 12:59:28 2020
overall_cpu_time:         246.2
overall_wall_time:         310.0
exit_requested_by_user: no 
timelimit: 0
pseudos: 
    Si  : 45c393525680abc7b25445b8ec62bf83
usepaw: 0
mpi_procs: 3
omp_threads: 1
num_warnings: 13
num_comments: 16
...
