  ABINIT 8.11.13
  
  Give name for formatted input file: 
ddb.in
  Give name for formatted output file:
ddb.out
  Give root name for generic input files:
ddbi
  Give root name for generic output files:
ddbo
  Give root name for generic temporary files:
ddb
 
--- !COMMENT
src_file: m_dtfil.F90
src_line: 1450
message: |
    Output file: ddb.out already exists.
...
 
 
--- !COMMENT
src_file: m_dtfil.F90
src_line: 1474
message: |
    Renaming old ddb.out to ddb.out0001
...
 

.Version 8.11.13 of ABINIT 
.(MPI version, prepared for a x86_64_linux_intel14.0 computer) 

.Copyright (C) 1998-2019 ABINIT group . 
 ABINIT comes with ABSOLUTELY NO WARRANTY.
 It is free software, and you are welcome to redistribute it
 under certain conditions (GNU General Public License,
 see ~abinit/COPYING or http://www.gnu.org/copyleft/gpl.txt).

 ABINIT is a project of the Universite Catholique de Louvain,
 Corning Inc. and other collaborators, see ~abinit/doc/developers/contributors.txt .
 Please read https://docs.abinit.org/theory/acknowledgments for suggested
 acknowledgments of the ABINIT effort.
 For more information, see https://www.abinit.org .

.Starting date : Fri 10 Jan 2020.
- ( at 14h58 )
  
 
 ++++++++++++++++++++++++++++++++++++++++++++++++++++++++++++++++++++++++++++++
 
 === Build Information === 
  Version       : 8.11.13
  Build target  : x86_64_linux_intel14.0
  Build date    : 20191206
 
 === Compiler Suite === 
  C compiler       : intel14.0
  C++ compiler     : gnu14.0
  Fortran compiler : intel14.0
  CFLAGS           :  -g -O2
  CXXFLAGS         :  -g -O2 -mtune=native -march=native
  FCFLAGS          :  -g -extend-source -nofpscomp
  FC_LDFLAGS       :    -static-intel -static-libgcc
 
 === Optimizations === 
  Debug level        : basic
  Optimization level : standard
  Architecture       : intel_xeon
 
 === Multicore === 
  Parallel build : yes
  Parallel I/O   : yes
  openMP support : no
  GPU support    : no
 
 === Connectors / Fallbacks === 
  Connectors on : yes
  Fallbacks on  : yes
  DFT flavor    : libxc-fallback
  FFT flavor    : fftw3
  LINALG flavor : mkl
  TIMER flavor  : abinit
  TRIO flavor   : netcdf
 
 === Experimental features === 
  Exports             : no
  GW double-precision : yes
 
 ++++++++++++++++++++++++++++++++++++++++++++++++++++++++++++++++++++++++++++++
 

 ++++++++++++++++++++++++++++++++++++++++++++++++++++++++++++++++++++++++++++++
 Default optimizations:
   -O3


 Optimizations for 43_ptgroups:
   -O0


 ++++++++++++++++++++++++++++++++++++++++++++++++++++++++++++++++++++++++++++++


 ++++++++++++++++++++++++++++++++++++++++++++++++++++++++++++++++++++++++++++++
 CPP options activated during the build:

                  CC_INTEL                   CXX_GNU                  FC_INTEL
 
 HAVE_FC_ALLOCATABLE_DT...             HAVE_FC_ASYNC  HAVE_FC_COMMAND_ARGUMENT
 
        HAVE_FC_CONTIGUOUS           HAVE_FC_CPUTIME             HAVE_FC_ETIME
 
              HAVE_FC_EXIT             HAVE_FC_FLUSH             HAVE_FC_GAMMA
 
            HAVE_FC_GETENV            HAVE_FC_GETPID   HAVE_FC_IEEE_ARITHMETIC
 
   HAVE_FC_IEEE_EXCEPTIONS             HAVE_FC_IOMSG     HAVE_FC_ISO_C_BINDING
 
  HAVE_FC_ISO_FORTRAN_2008        HAVE_FC_LONG_LINES        HAVE_FC_MOVE_ALLOC
 
  HAVE_FC_ON_THE_FLY_SHAPE           HAVE_FC_PRIVATE         HAVE_FC_PROTECTED
 
           HAVE_FC_SHIFTLR         HAVE_FC_STREAM_IO            HAVE_FC_SYSTEM
 
                  HAVE_FFT            HAVE_FFT_FFTW3              HAVE_FFT_MPI
 
           HAVE_FFT_SERIAL               HAVE_GW_DPC        HAVE_LIBPAW_ABINIT
 
      HAVE_LIBTETRA_ABINIT                HAVE_LIBXC               HAVE_LINALG
 
         HAVE_LINALG_AXPBY        HAVE_LINALG_GEMM3M  HAVE_LINALG_MKL_IMATCOPY
 
   HAVE_LINALG_MKL_OMATADD  HAVE_LINALG_MKL_OMATCOPY   HAVE_LINALG_MKL_THREADS
 
        HAVE_LINALG_SERIAL                  HAVE_MPI                 HAVE_MPI2
 
       HAVE_MPI_IALLREDUCE        HAVE_MPI_IALLTOALL       HAVE_MPI_IALLTOALLV
 
           HAVE_MPI_IBCAST         HAVE_MPI_IGATHERV        HAVE_MPI_INTEGER16
 
               HAVE_MPI_IO HAVE_MPI_TYPE_CREATE_S...               HAVE_NETCDF
 
           HAVE_NETCDF_MPI                HAVE_NUMPY             HAVE_OS_LINUX
 
         HAVE_TIMER_ABINIT                  HAVE_XML              USE_MACROAVE
 
 ++++++++++++++++++++++++++++++++++++++++++++++++++++++++++++++++++++++++++++++

- input  file    -> ddb.in
- output file    -> ddb.out
- root for input  files -> ddbi
- root for output files -> ddbo
 
Netcdf library supports MPI-IO
-instrng: 110 lines of input have been read from file ddb.in
 

 Please give name of formatted atomic psp file
 For atom type 1, psp file is /CECI/home/ucl/naps/jovbever/.PsP/Si/Si.psp8
  read the values zionpsp=  4.0 , pspcod=   8 , lmax=   2
 
 inpspheads: deduce mpsang = 3, n1xccc = 2501.

======================================================= 
invars1m : enter jdtset= 1
 
 symlatt: the Bravais lattice is mC (one-face-centered monoclinic)
  xred   is defined in input file
 ingeo: takes atomic coordinates from input array xred
 
 symlatt: the Bravais lattice is mC (one-face-centered monoclinic)
 
 symlatt: the Bravais lattice is mC (one-face-centered monoclinic)
 symspgr: spgroup=  12  C2/m   (=C2h^3)

======================================================= 
invars1m : enter jdtset= 2
 
 symlatt: the Bravais lattice is mC (one-face-centered monoclinic)
  xred   is defined in input file
 ingeo: takes atomic coordinates from input array xred
 
 symlatt: the Bravais lattice is mC (one-face-centered monoclinic)
 
 symlatt: the Bravais lattice is mC (one-face-centered monoclinic)
 symspgr: spgroup=  12  C2/m   (=C2h^3)

======================================================= 
invars1m : enter jdtset= 3
 
 symlatt: the Bravais lattice is mC (one-face-centered monoclinic)
  xred   is defined in input file
 ingeo: takes atomic coordinates from input array xred
 
 symlatt: the Bravais lattice is mC (one-face-centered monoclinic)
 
 symlatt: the Bravais lattice is mC (one-face-centered monoclinic)
 symspgr: spgroup=  12  C2/m   (=C2h^3)
 
--- !WARNING
src_file: m_mpinfo.F90
src_line: 2292
message: |
    nkpt*nsppol (72) is not a multiple of nproc_kpt (28)
    The k-point parallelisation is inefficient. (Ignore this warning if this is not a GS run)
...
 
 
--- !WARNING
src_file: m_mpi_setup.F90
src_line: 704
message: |
    Your number of spins*k-points (=72) will not distribute correctly
    with the current number of processors (=28).
    You will leave some empty.
    YOU ARE STRONGLY ADVICED TO ACTIVATE AUTOMATIC PARALLELIZATION!
    PUT "AUTOPARAL=1" IN THE INPUT FILE.
...
 
 For input ecut=  1.600000E+01 best grid ngfft=      30      30      30
       max ecut=  2.083821E+01
 
 ==== FFT mesh ====
  FFT mesh divisions ........................    30   30   30
  Augmented FFT divisions ...................    31   31   30
  FFT algorithm .............................   312
  FFT cache size ............................    16
 getmpw: optimal value of mpw= 863
 For input ecut=  1.600000E+01 best grid ngfft=      30      30      30
       max ecut=  2.083821E+01
 
 ==== FFT mesh ====
  FFT mesh divisions ........................    30   30   30
  Augmented FFT divisions ...................    31   31   30
  FFT algorithm .............................   312
  FFT cache size ............................    16
 getmpw: optimal value of mpw= 863
 getmpw: optimal value of mpw= 863
 For input ecut=  1.600000E+01 best grid ngfft=      30      30      30
       max ecut=  2.083821E+01
 
 ==== FFT mesh ====
  FFT mesh divisions ........................    30   30   30
  Augmented FFT divisions ...................    31   31   30
  FFT algorithm .............................   312
  FFT cache size ............................    16
 getmpw: optimal value of mpw= 863
 getmpw: optimal value of mpw= 863
 
 DATASET    1 : space group C2/m (# 12); Bravais mC (1-face-center monocl.)
 
 getdim_nloc : deduce lmnmax  =  18, lnmax  =   6,
                      lmnmaxso=  18, lnmaxso=   6.
memory: analysis of memory needs
================================================================================
 Values of the parameters that define the memory need for DATASET  1.
     intxc =       0    ionmov =       0      iscf =       7    lmnmax =       6
     lnmax =       6     mgfft =      30  mpssoang =       3    mqgrid =    3001
     natom =       2  nloc_mem =       1    nspden =       1   nspinor =       1
    nsppol =       1      nsym =       4    n1xccc =    2501    ntypat =       1
    occopt =       1   xclevel =       2
-    mband =           6        mffmem =           1         mkmem =           3
       mpw =         863          nfft =       27000          nkpt =          72
================================================================================
P This job should need less than                       9.680 Mbytes of memory.
  Rough estimation (10% accuracy) of disk space for files :
_ WF disk file :      5.691 Mbytes ; DEN or POT disk file :      0.208 Mbytes.
================================================================================
 
 Biggest array : f_fftgr(disk), with      3.2979 MBytes.
 memana : allocated an array of      3.298 Mbytes, for testing purposes.
 memana: allocated       9.680Mbytes, for testing purposes. 
 The job will continue.
 
 DATASET    2 : space group C2/m (# 12); Bravais mC (1-face-center monocl.)
 
 getdim_nloc : deduce lmnmax  =  18, lnmax  =   6,
                      lmnmaxso=  18, lnmaxso=   6.
 memorf : analysis of memory needs
================================================================================
 Values of the parameters that define the memory need for DATASET  2 (RF).
     intxc =       0      iscf =      -3    lmnmax =       6     lnmax =       6
     mgfft =      30  mpssoang =       3    mqgrid =    3001     natom =       2
  nloc_mem =       1    nspden =       1   nspinor =       1    nsppol =       1
      nsym =       4    n1xccc =    2501    ntypat =       1    occopt =       1
   xclevel =       2
-    mband =           6        mffmem =           1         mkmem =           5
-   mkqmem =           5        mk1mem =           5           mpw =         863
      nfft =       27000          nkpt =         128
================================================================================
P This job should need less than                       7.769 Mbytes of memory.
  Rough estimation (10% accuracy) of disk space for files :
_ WF disk file :     10.115 Mbytes ; DEN or POT disk file :      0.208 Mbytes.
================================================================================
 
 Biggest array : cg(disk), with      0.3971 MBytes.
 memana : allocated an array of      0.397 Mbytes, for testing purposes.
 memana: allocated       7.769Mbytes, for testing purposes. 
 The job will continue.
 
 DATASET    3 : space group C2/m (# 12); Bravais mC (1-face-center monocl.)
 
 getdim_nloc : deduce lmnmax  =  18, lnmax  =   6,
                      lmnmaxso=  18, lnmaxso=   6.
 memorf : analysis of memory needs
================================================================================
 Values of the parameters that define the memory need for DATASET  3 (RF).
     intxc =       0      iscf =       7    lmnmax =       6     lnmax =       6
     mgfft =      30  mpssoang =       3    mqgrid =    3001     natom =       2
  nloc_mem =       1    nspden =       1   nspinor =       1    nsppol =       1
      nsym =       4    n1xccc =    2501    ntypat =       1    occopt =       1
   xclevel =       2
-    mband =           6        mffmem =           1         mkmem =           5
-   mkqmem =           5        mk1mem =           5           mpw =         863
      nfft =       27000          nkpt =         128
================================================================================
P This job should need less than                       7.975 Mbytes of memory.
  Rough estimation (10% accuracy) of disk space for files :
_ WF disk file :     10.115 Mbytes ; DEN or POT disk file :      0.208 Mbytes.
================================================================================
 
 Biggest array : cg(disk), with      0.3971 MBytes.
 memana : allocated an array of      0.397 Mbytes, for testing purposes.
 memana: allocated       7.975Mbytes, for testing purposes. 
 The job will continue.
--------------------------------------------------------------------------------
------------- Echo of variables that govern the present computation ------------
--------------------------------------------------------------------------------
-
- outvars: echo of selected default values                                      
-   iomode0 =  0 , fftalg0 =312 , wfoptalg0 =  0
-
- outvars: echo of global parameters not present in the input file              
-  max_nthreads =    0
-
 -outvars: echo values of preprocessed input variables --------
 
 These variables are accessible in NetCDF format (ddbo_OUT.nc)

            acell      7.3076537532E+00  7.3076530854E+00  7.3076537532E+00 Bohr
              amu      2.80855000E+01
           diemac      1.20000000E+01
             ecut      1.60000000E+01 Hartree
-          fftalg         312
           getddk1          0
           getddk2          0
           getddk3         -1
           getwfk1          0
           getwfk2          1
           getwfk3          1
             iscf1          7
             iscf2         -3
             iscf3          7
              ixc          11
           jdtset        1    2    3
              kpt1    -1.25000000E-01 -2.50000000E-01  0.00000000E+00
                      -2.50000000E-01 -1.25000000E-01  0.00000000E+00
                      -1.25000000E-01 -1.25000000E-01  1.25000000E-01
                      -1.25000000E-01  5.00000000E-01  0.00000000E+00
                      -2.50000000E-01 -3.75000000E-01  0.00000000E+00
                      -1.25000000E-01 -3.75000000E-01  1.25000000E-01
                      -3.75000000E-01 -2.50000000E-01  0.00000000E+00
                      -2.50000000E-01 -2.50000000E-01  1.25000000E-01
                      -1.25000000E-01 -2.50000000E-01  2.50000000E-01
                       5.00000000E-01 -1.25000000E-01  0.00000000E+00
                      -3.75000000E-01 -1.25000000E-01  1.25000000E-01
                      -2.50000000E-01 -1.25000000E-01  2.50000000E-01
                      -1.25000000E-01 -1.25000000E-01  3.75000000E-01
                      -1.25000000E-01  2.50000000E-01  0.00000000E+00
                      -2.50000000E-01  3.75000000E-01  0.00000000E+00
                      -3.75000000E-01  5.00000000E-01  0.00000000E+00
                      -2.50000000E-01  5.00000000E-01  1.25000000E-01
                       5.00000000E-01 -3.75000000E-01  0.00000000E+00
                      -3.75000000E-01 -3.75000000E-01  1.25000000E-01
                      -2.50000000E-01 -3.75000000E-01  2.50000000E-01
                      -1.25000000E-01 -3.75000000E-01  3.75000000E-01
                       3.75000000E-01 -2.50000000E-01  0.00000000E+00
                       5.00000000E-01 -2.50000000E-01  1.25000000E-01
                      -3.75000000E-01 -2.50000000E-01  2.50000000E-01
                      -2.50000000E-01 -2.50000000E-01  3.75000000E-01
                      -1.25000000E-01 -2.50000000E-01  5.00000000E-01
                       2.50000000E-01 -1.25000000E-01  0.00000000E+00
                       3.75000000E-01 -1.25000000E-01  1.25000000E-01
                       5.00000000E-01 -1.25000000E-01  2.50000000E-01
                      -3.75000000E-01 -1.25000000E-01  3.75000000E-01
                      -2.50000000E-01 -1.25000000E-01  5.00000000E-01
                      -1.25000000E-01 -1.25000000E-01 -3.75000000E-01
                      -1.25000000E-01  0.00000000E+00  0.00000000E+00
                       5.00000000E-01  5.00000000E-01  1.25000000E-01
                      -3.75000000E-01  5.00000000E-01  2.50000000E-01
                       3.75000000E-01 -3.75000000E-01  1.25000000E-01
                       5.00000000E-01 -3.75000000E-01  2.50000000E-01
                      -3.75000000E-01 -3.75000000E-01  3.75000000E-01
                      -2.50000000E-01 -3.75000000E-01  5.00000000E-01
                      -1.25000000E-01 -3.75000000E-01 -3.75000000E-01
                       2.50000000E-01 -2.50000000E-01  1.25000000E-01
                       3.75000000E-01 -2.50000000E-01  2.50000000E-01
                       5.00000000E-01 -2.50000000E-01  3.75000000E-01
                      -3.75000000E-01 -2.50000000E-01  5.00000000E-01
                      -2.50000000E-01 -2.50000000E-01 -3.75000000E-01
                      -1.25000000E-01 -2.50000000E-01 -2.50000000E-01
                       0.00000000E+00 -1.25000000E-01  0.00000000E+00
                       1.25000000E-01 -1.25000000E-01  1.25000000E-01
                       2.50000000E-01 -1.25000000E-01  2.50000000E-01
                       3.75000000E-01 -1.25000000E-01  3.75000000E-01
              kpt2    -1.25000000E-01 -2.50000000E-01  0.00000000E+00
                      -2.50000000E-01 -1.25000000E-01  0.00000000E+00
                      -1.25000000E-01 -1.25000000E-01  1.25000000E-01
                      -1.25000000E-01  5.00000000E-01  0.00000000E+00
                      -2.50000000E-01 -3.75000000E-01  0.00000000E+00
                      -1.25000000E-01 -3.75000000E-01  1.25000000E-01
                      -3.75000000E-01 -2.50000000E-01  0.00000000E+00
                      -2.50000000E-01 -2.50000000E-01  1.25000000E-01
                      -1.25000000E-01 -2.50000000E-01  2.50000000E-01
                       5.00000000E-01 -1.25000000E-01  0.00000000E+00
                      -3.75000000E-01 -1.25000000E-01  1.25000000E-01
                      -2.50000000E-01 -1.25000000E-01  2.50000000E-01
                      -1.25000000E-01 -1.25000000E-01  3.75000000E-01
                      -1.25000000E-01  2.50000000E-01  0.00000000E+00
                      -2.50000000E-01  3.75000000E-01  0.00000000E+00
                      -1.25000000E-01  3.75000000E-01  1.25000000E-01
                      -3.75000000E-01  5.00000000E-01  0.00000000E+00
                      -2.50000000E-01  5.00000000E-01  1.25000000E-01
                      -1.25000000E-01  5.00000000E-01  2.50000000E-01
                       5.00000000E-01 -3.75000000E-01  0.00000000E+00
                      -3.75000000E-01 -3.75000000E-01  1.25000000E-01
                      -2.50000000E-01 -3.75000000E-01  2.50000000E-01
                      -1.25000000E-01 -3.75000000E-01  3.75000000E-01
                       3.75000000E-01 -2.50000000E-01  0.00000000E+00
                       5.00000000E-01 -2.50000000E-01  1.25000000E-01
                      -3.75000000E-01 -2.50000000E-01  2.50000000E-01
                      -2.50000000E-01 -2.50000000E-01  3.75000000E-01
                      -1.25000000E-01 -2.50000000E-01  5.00000000E-01
                       2.50000000E-01 -1.25000000E-01  0.00000000E+00
                       3.75000000E-01 -1.25000000E-01  1.25000000E-01
                       5.00000000E-01 -1.25000000E-01  2.50000000E-01
                      -3.75000000E-01 -1.25000000E-01  3.75000000E-01
                      -2.50000000E-01 -1.25000000E-01  5.00000000E-01
                      -1.25000000E-01 -1.25000000E-01 -3.75000000E-01
                      -1.25000000E-01  0.00000000E+00  0.00000000E+00
                      -1.25000000E-01  1.25000000E-01  1.25000000E-01
                      -2.50000000E-01  2.50000000E-01  1.25000000E-01
                      -1.25000000E-01  2.50000000E-01  2.50000000E-01
                      -3.75000000E-01  3.75000000E-01  1.25000000E-01
                      -2.50000000E-01  3.75000000E-01  2.50000000E-01
                      -1.25000000E-01  3.75000000E-01  3.75000000E-01
                       5.00000000E-01  5.00000000E-01  1.25000000E-01
                      -3.75000000E-01  5.00000000E-01  2.50000000E-01
                      -2.50000000E-01  5.00000000E-01  3.75000000E-01
                      -1.25000000E-01  5.00000000E-01  5.00000000E-01
                       3.75000000E-01 -3.75000000E-01  1.25000000E-01
                       5.00000000E-01 -3.75000000E-01  2.50000000E-01
                      -3.75000000E-01 -3.75000000E-01  3.75000000E-01
                      -2.50000000E-01 -3.75000000E-01  5.00000000E-01
                      -1.25000000E-01 -3.75000000E-01 -3.75000000E-01
              kpt3    -1.25000000E-01 -2.50000000E-01  0.00000000E+00
                      -2.50000000E-01 -1.25000000E-01  0.00000000E+00
                      -1.25000000E-01 -1.25000000E-01  1.25000000E-01
                      -1.25000000E-01  5.00000000E-01  0.00000000E+00
                      -2.50000000E-01 -3.75000000E-01  0.00000000E+00
                      -1.25000000E-01 -3.75000000E-01  1.25000000E-01
                      -3.75000000E-01 -2.50000000E-01  0.00000000E+00
                      -2.50000000E-01 -2.50000000E-01  1.25000000E-01
                      -1.25000000E-01 -2.50000000E-01  2.50000000E-01
                       5.00000000E-01 -1.25000000E-01  0.00000000E+00
                      -3.75000000E-01 -1.25000000E-01  1.25000000E-01
                      -2.50000000E-01 -1.25000000E-01  2.50000000E-01
                      -1.25000000E-01 -1.25000000E-01  3.75000000E-01
                      -1.25000000E-01  2.50000000E-01  0.00000000E+00
                      -2.50000000E-01  3.75000000E-01  0.00000000E+00
                      -1.25000000E-01  3.75000000E-01  1.25000000E-01
                      -3.75000000E-01  5.00000000E-01  0.00000000E+00
                      -2.50000000E-01  5.00000000E-01  1.25000000E-01
                      -1.25000000E-01  5.00000000E-01  2.50000000E-01
                       5.00000000E-01 -3.75000000E-01  0.00000000E+00
                      -3.75000000E-01 -3.75000000E-01  1.25000000E-01
                      -2.50000000E-01 -3.75000000E-01  2.50000000E-01
                      -1.25000000E-01 -3.75000000E-01  3.75000000E-01
                       3.75000000E-01 -2.50000000E-01  0.00000000E+00
                       5.00000000E-01 -2.50000000E-01  1.25000000E-01
                      -3.75000000E-01 -2.50000000E-01  2.50000000E-01
                      -2.50000000E-01 -2.50000000E-01  3.75000000E-01
                      -1.25000000E-01 -2.50000000E-01  5.00000000E-01
                       2.50000000E-01 -1.25000000E-01  0.00000000E+00
                       3.75000000E-01 -1.25000000E-01  1.25000000E-01
                       5.00000000E-01 -1.25000000E-01  2.50000000E-01
                      -3.75000000E-01 -1.25000000E-01  3.75000000E-01
                      -2.50000000E-01 -1.25000000E-01  5.00000000E-01
                      -1.25000000E-01 -1.25000000E-01 -3.75000000E-01
                      -1.25000000E-01  0.00000000E+00  0.00000000E+00
                      -1.25000000E-01  1.25000000E-01  1.25000000E-01
                      -2.50000000E-01  2.50000000E-01  1.25000000E-01
                      -1.25000000E-01  2.50000000E-01  2.50000000E-01
                      -3.75000000E-01  3.75000000E-01  1.25000000E-01
                      -2.50000000E-01  3.75000000E-01  2.50000000E-01
                      -1.25000000E-01  3.75000000E-01  3.75000000E-01
                       5.00000000E-01  5.00000000E-01  1.25000000E-01
                      -3.75000000E-01  5.00000000E-01  2.50000000E-01
                      -2.50000000E-01  5.00000000E-01  3.75000000E-01
                      -1.25000000E-01  5.00000000E-01  5.00000000E-01
                       3.75000000E-01 -3.75000000E-01  1.25000000E-01
                       5.00000000E-01 -3.75000000E-01  2.50000000E-01
                      -3.75000000E-01 -3.75000000E-01  3.75000000E-01
                      -2.50000000E-01 -3.75000000E-01  5.00000000E-01
                      -1.25000000E-01 -3.75000000E-01 -3.75000000E-01
                       outvar_i_n : Printing only first  50 k-points.
           kptopt1          1
           kptopt2          2
           kptopt3          2
         kptrlatt        4   -4    4     -4    4    4     -4   -4    4
          kptrlen      4.13383290E+01
P           mkmem1          3
P           mkmem2          5
P           mkmem3          5
P          mkqmem1          3
P          mkqmem2          5
P          mkqmem3          5
P          mk1mem1          3
P          mk1mem2          5
P          mk1mem3          5
            natom           2
            nband1          6
            nband2          6
            nband3          6
           ndtset           3
            ngfft          30      30      30
             nkpt1         72
             nkpt2        128
             nkpt3        128
             nqpt1          0
             nqpt2          1
             nqpt3          1
            nstep          40
             nsym           4
           ntypat           1
              occ1     2.000000  2.000000  2.000000  2.000000  0.000000  0.000000
              occ2     2.000000  2.000000  2.000000  2.000000  0.000000  0.000000
              occ3     2.000000  2.000000  2.000000  2.000000  0.000000  0.000000
        optdriver1          0
        optdriver2          1
        optdriver3          1
          rfatpol           1       2
            rfdir           1       1       1
           rfelfd1          0
           rfelfd2          2
           rfelfd3          3
           rfphon1          0
           rfphon2          0
           rfphon3          1
            rprim      7.0710682721E-01  7.0710673517E-01  0.0000000000E+00
                       0.0000000000E+00  7.0710678119E-01  7.0710678119E-01
                       7.0710682721E-01  0.0000000000E+00  7.0710673517E-01
           shiftk      5.00000000E-01  5.00000000E-01  5.00000000E-01
          spgroup          12
           symrel      1  0  0   0  1  0   0  0  1      -1  0  0   0 -1  0   0  0 -1
                       0  0 -1   0 -1  0  -1  0  0       0  0  1   0  1  0   1  0  0
            tnons      0.0000000  0.0000000  0.0000000     0.2500000  0.2500000  0.2500000
                       0.2500000  0.2500000  0.2500000     0.0000000  0.0000000  0.0000000
           tolvrs1     1.00000000E-10
           tolvrs2     0.00000000E+00
           tolvrs3     1.00000000E-08
           tolwfr1     0.00000000E+00
           tolwfr2     1.00000000E-20
           tolwfr3     0.00000000E+00
            typat      1  1
              wtk1       0.01563    0.01563    0.01563    0.01563    0.01563    0.01563
                         0.01563    0.01563    0.01563    0.01563    0.01563    0.01563
                         0.01563    0.01563    0.01563    0.01563    0.01563    0.01563
                         0.01563    0.01563    0.01563    0.01563    0.01563    0.01563
                         0.01563    0.01563    0.01563    0.01563    0.01563    0.01563
                         0.01563    0.01563    0.01563    0.01563    0.01563    0.01563
                         0.01563    0.01563    0.01563    0.01563    0.01563    0.01563
                         0.01563    0.01563    0.01563    0.01563    0.00781    0.00781
                         0.00781    0.00781
              wtk2       0.00781    0.00781    0.00781    0.00781    0.00781    0.00781
                         0.00781    0.00781    0.00781    0.00781    0.00781    0.00781
                         0.00781    0.00781    0.00781    0.00781    0.00781    0.00781
                         0.00781    0.00781    0.00781    0.00781    0.00781    0.00781
                         0.00781    0.00781    0.00781    0.00781    0.00781    0.00781
                         0.00781    0.00781    0.00781    0.00781    0.00781    0.00781
                         0.00781    0.00781    0.00781    0.00781    0.00781    0.00781
                         0.00781    0.00781    0.00781    0.00781    0.00781    0.00781
                         0.00781    0.00781
              wtk3       0.00781    0.00781    0.00781    0.00781    0.00781    0.00781
                         0.00781    0.00781    0.00781    0.00781    0.00781    0.00781
                         0.00781    0.00781    0.00781    0.00781    0.00781    0.00781
                         0.00781    0.00781    0.00781    0.00781    0.00781    0.00781
                         0.00781    0.00781    0.00781    0.00781    0.00781    0.00781
                         0.00781    0.00781    0.00781    0.00781    0.00781    0.00781
                         0.00781    0.00781    0.00781    0.00781    0.00781    0.00781
                         0.00781    0.00781    0.00781    0.00781    0.00781    0.00781
                         0.00781    0.00781
                       outvars : Printing only first  50 k-points.
           xangst      0.0000000000E+00  0.0000000000E+00  0.0000000000E+00
                       1.3672065412E+00  1.3672063452E+00  1.3672063452E+00
            xcart      0.0000000000E+00  0.0000000000E+00  0.0000000000E+00
                       2.5836459299E+00  2.5836455596E+00  2.5836455596E+00
             xred      0.0000000000E+00  0.0000000000E+00  0.0000000000E+00
                       2.5000000000E-01  2.5000000000E-01  2.5000000000E-01
            znucl       14.00000
 
================================================================================
 
 chkinp: Checking input parameters for consistency, jdtset=   1.
 
 chkinp: Checking input parameters for consistency, jdtset=   2.
 
 chkinp: Checking input parameters for consistency, jdtset=   3.
 DATA TYPE INFORMATION: 
 REAL:      Data type name: REAL(DP) 
            Kind value:      8
            Precision:      15
            Smallest nonnegligible quantity relative to 1:  0.22204460E-15
            Smallest positive number:                       0.22250739-307
            Largest representable number:                   0.17976931+309
 INTEGER:   Data type name: INTEGER(default) 
            Kind value: 4
            Bit size:   32
            Largest representable number: 2147483647
 LOGICAL:   Data type name: LOGICAL 
            Kind value: 4
 CHARACTER: Data type name: CHARACTER             Kind value: 1

  ==== OpenMP parallelism is OFF ====
 
  ==== Using MPI-2 specifications ==== 
  MPI-IO support is ON
  xmpi_tag_ub ................   1073741824
  xmpi_bsize_ch ..............            1
  xmpi_bsize_int .............            4
  xmpi_bsize_sp ..............            4
  xmpi_bsize_dp ..............            8
  xmpi_bsize_spc .............            8
  xmpi_bsize_dpc .............           16
  xmpio_bsize_frm ............            4
  xmpi_address_kind ..........            8
  xmpi_offset_kind ...........            8
  MPI_WTICK ..................   1.000000000000000E-006
 
================================================================================
== DATASET  1 ==================================================================
-   nproc =   28   -> not optimal: autoparal keyword recommended in input file
 
 
--- !COMMENT
src_file: m_xgScalapack.F90
src_line: 237
message: |
    xgScalapack in auto mode
...
 
 
 getdim_nloc : deduce lmnmax  =  18, lnmax  =   6,
                      lmnmaxso=  18, lnmaxso=   6.
 Exchange-correlation functional for the present dataset will be:
  GGA: Perdew-Burke-Ernzerhof functional - ixc=11
 Citation for XC functional:
  J.P.Perdew, K.Burke, M.Ernzerhof, PRL 77, 3865 (1996)
 
 Unit cell volume ucvol=  2.7594266E+02 bohr^3
 Angles (23,13,12)=  6.00000022E+01  5.99999957E+01  6.00000022E+01 degrees
 
 getcut: wavevector=  0.0000  0.0000  0.0000  ngfft=  30  30  30
         ecut(hartree)=     16.000   => boxcut(ratio)=   2.28244
 
 getcut : COMMENT -
  Note that boxcut > 2.2 ; recall that boxcut=Gcut(box)/Gcut(sphere) = 2
  is sufficient for exact treatment of convolution.
  Such a large boxcut is a waste : you could raise ecut
  e.g. ecut=   20.838208 Hartrees makes boxcut=2
 
- pspini: atom type   1  psp file is /CECI/home/ucl/naps/jovbever/.PsP/Si/Si.psp8
- pspatm: opening atomic psp file    /CECI/home/ucl/naps/jovbever/.PsP/Si/Si.psp8
- Si    ONCVPSP-3.2.3.1  r_core=   1.60303   1.72197   1.91712
- 14.00000   4.00000    170510                znucl, zion, pspdat
    8   11    2    4       600   0.00000      pspcod,pspxc,lmax,lloc,mmax,r2well
    5.99000000000000    4.00000000000000    0.00000000000000   rchrg,fchrg,qchrg
     nproj     2     2     2
     extension_switch     1
  valence charge integrates to:    3.95328304696650     
  pspatm : epsatm=    9.34321699
         --- l  ekb(1:nproj) -->
             0    5.168965    0.829883
             1    2.571282    0.578307
             2   -2.427311   -0.488097
 pspatm: atomic psp has been read  and splines computed
 
   1.49491472E+02                                ecore*ucvol(ha*bohr**3)
 ==== Info on pseudopotentials ====
  Norm-conserving pseudopotentials
  Number of pseudopotentials ..    1
  Number of types of atoms   ..    1
  Scalar calculation (no spin-orbit term)
  Nonlocal part applied using Legendre polynomials
  Max number of non-local projectors over l and type   2
  Highest angular momentum +1 .......   3
  Max number of (l,n)   components ..   6
  Max number of (l,m,n) components ..   6
 
 Pseudo-Core Charge Info: 
   Number of radial points for pseudo-core charge .. 2501
   XC core-correction treatment (optnlxccc) ........    1
   Radius for pseudo-core charge for each type ..... 
 
  - Atom type    1 has pseudo-core radius ..  5.9900
 
 Info on the Q-grid used for form factors in spline form: 
   Number of q-points for radial functions ffspl ..   3001
   Number of q-points for vlspl ...................   3001
   vloc is computed in Reciprocal Space
   model core charge treated in real-space
 
  XC functional for type 1 is 11
  Pseudo valence available: yes
 
 wfconv:     6 bands initialized randomly with npw=   856, for ikpt=     1
 wfconv:     6 bands initialized randomly with npw=   856, for ikpt=     2
 wfconv:     6 bands initialized randomly with npw=   856, for ikpt=     3
_setup2: Arith. and geom. avg. npw (full set) are     844.031     844.011
 initro: for itypat=  1, take pseudo charge density from pp file
 
================================================================================
 
 getcut: wavevector=  0.0000  0.0000  0.0000  ngfft=  30  30  30
         ecut(hartree)=     16.000   => boxcut(ratio)=   2.28244
 
 getcut : COMMENT -
  Note that boxcut > 2.2 ; recall that boxcut=Gcut(box)/Gcut(sphere) = 2
  is sufficient for exact treatment of convolution.
  Such a large boxcut is a waste : you could raise ecut
  e.g. ecut=   20.838208 Hartrees makes boxcut=2
 
 
 ITER STEP NUMBER     1
 vtorho: nnsclo_now=2, note that nnsclo,dbl_nnsclo,istep=0 0 1
 Total charge density [el/Bohr^3]
      Maximum=    8.7800E-02  at reduced coord.    0.1000    0.1000    0.7000
      Minimum=    1.5221E-03  at reduced coord.    0.0000    0.0000    0.0000
   Integrated=    8.0000E+00
 ETOT  1  -8.4584421992412    -8.458E+00 1.453E-02 5.901E+00
 scprqt: <Vxc>= -3.3629860E-01 hartree
 
 Simple mixing update:
  residual square of the potential:    2.71157500689705
 scfcv_core: previous iteration took  0.59 [s]
 
 ITER STEP NUMBER     2
 vtorho: nnsclo_now=2, note that nnsclo,dbl_nnsclo,istep=0 0 2
 Total charge density [el/Bohr^3]
      Maximum=    8.4395E-02  at reduced coord.    0.1000    0.1000    0.1000
      Minimum=    1.4914E-03  at reduced coord.    0.0000    0.0000    0.0000
   Integrated=    8.0000E+00
 ETOT  2  -8.4624192241501    -3.977E-03 1.422E-03 1.058E-01
 scprqt: <Vxc>= -3.3816857E-01 hartree
 
 Pulay update with  1 previous iterations:
 mixing of old trial potential: alpha(m:m-4)=   1.13     -0.129
 scfcv_core: previous iteration took  0.49 [s]
 
 ITER STEP NUMBER     3
 vtorho: nnsclo_now=1, note that nnsclo,dbl_nnsclo,istep=0 0 3
 Total charge density [el/Bohr^3]
      Maximum=    8.4018E-02  at reduced coord.    0.1000    0.1000    0.7000
      Minimum=    1.4931E-03  at reduced coord.    0.0000    0.0000    0.0000
   Integrated=    8.0000E+00
 ETOT  3  -8.4624445968216    -2.537E-05 5.262E-04 1.029E-03
 scprqt: <Vxc>= -3.3845717E-01 hartree
 
 Pulay update with  2 previous iterations:
 mixing of old trial potential: alpha(m:m-4)=   1.18     -0.199      0.210E-01
 scfcv_core: previous iteration took  0.30 [s]
 
 ITER STEP NUMBER     4
 vtorho: nnsclo_now=1, note that nnsclo,dbl_nnsclo,istep=0 0 4
 Total charge density [el/Bohr^3]
      Maximum=    8.4023E-02  at reduced coord.    0.1000    0.1000    0.1000
      Minimum=    1.4933E-03  at reduced coord.    0.0000    0.0000    0.0000
   Integrated=    8.0000E+00
 ETOT  4  -8.4624447221432    -1.253E-07 7.756E-04 5.163E-05
 scprqt: <Vxc>= -3.3847224E-01 hartree
 
 Pulay update with  3 previous iterations:
 mixing of old trial potential: alpha(m:m-4)=   1.31     -0.349      0.489E-01 -0.613E-02
 scfcv_core: previous iteration took  0.30 [s]
 
 ITER STEP NUMBER     5
 vtorho: nnsclo_now=1, note that nnsclo,dbl_nnsclo,istep=0 0 5
 Total charge density [el/Bohr^3]
      Maximum=    8.4019E-02  at reduced coord.    0.1000    0.1000    0.7000
      Minimum=    1.4932E-03  at reduced coord.    0.0000    0.0000    0.0000
   Integrated=    8.0000E+00
 ETOT  5  -8.4624447281743    -6.031E-09 8.264E-05 8.596E-07
 scprqt: <Vxc>= -3.3847766E-01 hartree
 
 Pulay update with  4 previous iterations:
 mixing of old trial potential: alpha(m:m-4)=   1.21     -0.234      0.259E-01 -0.237E-02  0.467E-03
 scfcv_core: previous iteration took  0.29 [s]
 
 ITER STEP NUMBER     6
 vtorho: nnsclo_now=1, note that nnsclo,dbl_nnsclo,istep=0 0 6
 Total charge density [el/Bohr^3]
      Maximum=    8.4019E-02  at reduced coord.    0.1000    0.1000    0.1000
      Minimum=    1.4932E-03  at reduced coord.    0.0000    0.0000    0.0000
   Integrated=    8.0000E+00
 ETOT  6  -8.4624447282266    -5.233E-11 9.477E-05 7.217E-09
 scprqt: <Vxc>= -3.3847807E-01 hartree
 
 Pulay update with  5 previous iterations:
 mixing of old trial potential: alpha(m:m-4)=   1.13     -0.140      0.813E-02  0.246E-02 -0.471E-03
 scfcv_core: previous iteration took  0.29 [s]
 
 ITER STEP NUMBER     7
 vtorho: nnsclo_now=1, note that nnsclo,dbl_nnsclo,istep=0 0 7
 Total charge density [el/Bohr^3]
      Maximum=    8.4019E-02  at reduced coord.    0.1000    0.7000    0.1000
      Minimum=    1.4932E-03  at reduced coord.    0.0000    0.0000    0.0000
   Integrated=    8.0000E+00
 ETOT  7  -8.4624447282270    -3.926E-13 3.793E-05 8.573E-11
 scprqt: <Vxc>= -3.3847810E-01 hartree
 
 At SCF step    7       vres2   =  8.57E-11 < tolvrs=  1.00E-10 =>converged.
 
 Cartesian components of stress tensor (hartree/bohr^3)
  sigma(1 1)=  1.34889708E-06  sigma(3 2)= -1.65132813E-10
  sigma(2 2)=  1.34842087E-06  sigma(3 1)=  4.06453829E-11
  sigma(3 3)=  1.34842087E-06  sigma(2 1)=  4.06453826E-11
 
 
   fftdatar_write: About to write data to: ddbo_DS1_DEN with iomode: IO_MODE_FORTRAN
 IO operation completed. cpu:  0.00 [s] , wall:  0.00 [s]
- Creating HDf5 file with MPI-IO support: ddbo_DS1_GSR.nc
================================================================================
 
 ----iterations are completed or convergence reached----
 
 
 === Gap info ===
  >>>> For spin  1
   Minimum direct gap =   2.6543 [eV], located at k-point      :   0.0000 -0.3750  0.0000
   Fundamental gap    =   1.2126 [eV], Top of valence bands at :  -0.1250  0.0000  0.0000
                                       Bottom of conduction at :  -0.3750  0.5000  0.0000
 Mean square residual over all n,k,spin=   20.466E-08; max=  37.925E-06
  -0.1250 -0.2500  0.0000    1  3.08583E-08 kpt; spin; max resid(k); each band:
  5.70E-15 2.58E-15 4.40E-15 1.96E-15 1.42E-13 3.09E-08
  -0.2500 -0.1250  0.0000    1  1.59032E-08 kpt; spin; max resid(k); each band:
  5.25E-15 3.30E-15 4.33E-15 2.63E-15 1.32E-14 1.59E-08
  -0.1250 -0.1250  0.1250    1  3.66196E-08 kpt; spin; max resid(k); each band:
  5.49E-15 1.82E-15 1.33E-15 5.32E-15 1.58E-14 3.66E-08
  -0.1250  0.5000  0.0000    1  1.17468E-06 kpt; spin; max resid(k); each band:
  4.60E-15 6.38E-15 3.62E-15 4.30E-15 2.30E-13 1.17E-06
  -0.2500 -0.3750  0.0000    1  1.02148E-14 kpt; spin; max resid(k); each band:
  5.92E-15 2.37E-15 3.13E-15 4.23E-15 6.40E-15 1.02E-14
  -0.1250 -0.3750  0.1250    1  1.90299E-11 kpt; spin; max resid(k); each band:
  5.19E-15 3.43E-15 2.91E-15 5.91E-15 3.54E-14 1.90E-11
  -0.3750 -0.2500  0.0000    1  7.54722E-15 kpt; spin; max resid(k); each band:
  5.68E-15 3.24E-15 5.00E-15 4.11E-15 4.02E-15 7.55E-15
  -0.2500 -0.2500  0.1250    1  7.55816E-15 kpt; spin; max resid(k); each band:
  5.67E-15 1.86E-15 7.56E-15 1.48E-15 3.31E-15 6.96E-15
  -0.1250 -0.2500  0.2500    1  1.13777E-11 kpt; spin; max resid(k); each band:
  5.64E-15 2.59E-15 6.37E-15 4.29E-15 5.33E-14 1.14E-11
   0.5000 -0.1250  0.0000    1  3.58943E-09 kpt; spin; max resid(k); each band:
  3.88E-15 3.76E-15 3.09E-15 4.12E-15 2.33E-13 3.59E-09
  -0.3750 -0.1250  0.1250    1  3.49191E-11 kpt; spin; max resid(k); each band:
  4.80E-15 2.54E-15 5.46E-15 3.38E-15 4.28E-14 3.49E-11
  -0.2500 -0.1250  0.2500    1  1.85053E-10 kpt; spin; max resid(k); each band:
  4.81E-15 1.68E-15 6.16E-15 2.29E-15 3.83E-13 1.85E-10
  -0.1250 -0.1250  0.3750    1  1.34698E-11 kpt; spin; max resid(k); each band:
  4.20E-15 3.36E-15 4.42E-15 1.28E-15 3.03E-14 1.35E-11
  -0.1250  0.2500  0.0000    1  3.32586E-06 kpt; spin; max resid(k); each band:
  5.24E-15 4.07E-15 4.26E-15 4.56E-15 7.70E-12 3.33E-06
  -0.2500  0.3750  0.0000    1  2.66045E-06 kpt; spin; max resid(k); each band:
  4.47E-15 3.15E-15 5.60E-15 3.95E-15 6.87E-15 2.66E-06
  -0.3750  0.5000  0.0000    1  5.81311E-15 kpt; spin; max resid(k); each band:
  4.75E-15 2.99E-15 4.00E-15 4.12E-15 3.46E-15 5.81E-15
  -0.2500  0.5000  0.1250    1  6.46221E-09 kpt; spin; max resid(k); each band:
  4.78E-15 2.53E-15 4.89E-15 7.48E-15 1.10E-14 6.46E-09
   0.5000 -0.3750  0.0000    1  5.81327E-15 kpt; spin; max resid(k); each band:
  4.50E-15 3.49E-15 4.82E-15 4.08E-15 2.57E-15 5.81E-15
  -0.3750 -0.3750  0.1250    1  7.25725E-15 kpt; spin; max resid(k); each band:
  4.50E-15 3.17E-15 7.26E-15 1.24E-15 3.72E-15 5.53E-15
  -0.2500 -0.3750  0.2500    1  7.41763E-09 kpt; spin; max resid(k); each band:
  3.60E-15 2.91E-15 1.03E-14 3.51E-15 1.69E-14 7.42E-09
  -0.1250 -0.3750  0.3750    1  1.36787E-10 kpt; spin; max resid(k); each band:
  3.70E-15 3.31E-15 9.05E-15 5.52E-15 1.69E-14 1.37E-10
   0.3750 -0.2500  0.0000    1  3.25413E-06 kpt; spin; max resid(k); each band:
  3.81E-15 2.89E-15 5.10E-15 3.95E-15 6.09E-15 3.25E-06
   0.5000 -0.2500  0.1250    1  1.32473E-09 kpt; spin; max resid(k); each band:
  3.43E-15 1.91E-15 6.80E-15 6.93E-15 1.16E-14 1.32E-09
  -0.3750 -0.2500  0.2500    1  1.92120E-08 kpt; spin; max resid(k); each band:
  3.00E-15 2.58E-15 9.99E-15 4.01E-15 1.39E-14 1.92E-08
  -0.2500 -0.2500  0.3750    1  7.33411E-07 kpt; spin; max resid(k); each band:
  5.22E-15 5.29E-15 8.46E-15 1.34E-15 5.61E-15 7.33E-07
  -0.1250 -0.2500  0.5000    1  2.76811E-10 kpt; spin; max resid(k); each band:
  5.08E-15 4.53E-15 6.08E-15 2.34E-15 6.55E-14 2.77E-10
   0.2500 -0.1250  0.0000    1  7.84766E-08 kpt; spin; max resid(k); each band:
  5.11E-15 3.23E-15 3.54E-15 4.58E-15 3.42E-12 7.85E-08
   0.3750 -0.1250  0.1250    1  2.21792E-11 kpt; spin; max resid(k); each band:
  5.00E-15 3.42E-15 4.33E-15 4.90E-15 2.93E-14 2.22E-11
   0.5000 -0.1250  0.2500    1  2.10154E-11 kpt; spin; max resid(k); each band:
  3.78E-15 2.06E-15 5.10E-15 4.80E-15 1.20E-14 2.10E-11
  -0.3750 -0.1250  0.3750    1  9.73207E-09 kpt; spin; max resid(k); each band:
  3.42E-15 3.09E-15 8.11E-15 3.54E-15 1.42E-14 9.73E-09
  -0.2500 -0.1250  0.5000    1  5.66151E-12 kpt; spin; max resid(k); each band:
  4.41E-15 4.52E-15 6.17E-15 2.10E-15 2.68E-14 5.66E-12
  -0.1250 -0.1250 -0.3750    1  4.20090E-06 kpt; spin; max resid(k); each band:
  3.88E-15 4.37E-15 4.22E-15 1.49E-15 4.00E-10 4.20E-06
  -0.1250  0.0000  0.0000    1  1.40811E-06 kpt; spin; max resid(k); each band:
  5.16E-15 2.88E-15 2.93E-15 1.71E-15 1.41E-06 8.83E-13
   0.5000  0.5000  0.1250    1  5.45415E-15 kpt; spin; max resid(k); each band:
  4.09E-15 3.52E-15 5.37E-15 1.31E-15 4.45E-15 5.45E-15
  -0.3750  0.5000  0.2500    1  7.04299E-10 kpt; spin; max resid(k); each band:
  2.46E-15 4.05E-15 5.73E-15 5.21E-15 1.13E-14 7.04E-10
   0.3750 -0.3750  0.1250    1  2.29945E-09 kpt; spin; max resid(k); each band:
  4.07E-15 2.42E-15 7.36E-15 5.48E-15 1.61E-14 2.30E-09
   0.5000 -0.3750  0.2500    1  1.26365E-09 kpt; spin; max resid(k); each band:
  2.14E-15 2.94E-15 6.36E-15 4.19E-15 1.60E-14 1.26E-09
  -0.3750 -0.3750  0.3750    1  5.53881E-06 kpt; spin; max resid(k); each band:
  1.86E-15 5.36E-15 3.26E-15 1.51E-15 8.47E-15 5.54E-06
  -0.2500 -0.3750  0.5000    1  3.75551E-11 kpt; spin; max resid(k); each band:
  3.50E-15 4.83E-15 2.13E-15 2.79E-15 3.57E-14 3.76E-11
  -0.1250 -0.3750 -0.3750    1  9.88919E-15 kpt; spin; max resid(k); each band:
  5.21E-15 2.35E-15 2.93E-15 1.36E-15 7.68E-15 9.89E-15
   0.2500 -0.2500  0.1250    1  3.57021E-11 kpt; spin; max resid(k); each band:
  5.38E-15 2.46E-15 7.28E-15 3.96E-15 1.97E-13 3.57E-11
   0.3750 -0.2500  0.2500    1  2.05274E-11 kpt; spin; max resid(k); each band:
  3.77E-15 2.19E-15 7.22E-15 3.49E-15 1.41E-14 2.05E-11
   0.5000 -0.2500  0.3750    1  1.16923E-11 kpt; spin; max resid(k); each band:
  1.92E-15 3.06E-15 5.15E-15 2.96E-15 1.31E-14 1.17E-11
  -0.3750 -0.2500  0.5000    1  2.84464E-11 kpt; spin; max resid(k); each band:
  3.67E-15 4.81E-15 3.69E-15 2.00E-15 2.05E-13 2.84E-11
  -0.2500 -0.2500 -0.3750    1  1.40891E-06 kpt; spin; max resid(k); each band:
  3.81E-15 4.84E-15 2.62E-15 1.49E-15 4.12E-11 1.41E-06
  -0.1250 -0.2500 -0.2500    1  1.40014E-07 kpt; spin; max resid(k); each band:
  5.23E-15 3.36E-15 1.41E-15 1.57E-15 3.38E-14 1.40E-07
   0.0000 -0.1250  0.0000    1  5.44874E-08 kpt; spin; max resid(k); each band:
  4.89E-15 2.14E-15 4.67E-15 3.02E-16 5.45E-08 4.45E-13
   0.1250 -0.1250  0.1250    1  1.50668E-08 kpt; spin; max resid(k); each band:
  5.44E-15 1.99E-15 1.67E-16 6.10E-15 2.81E-14 1.51E-08
   0.2500 -0.1250  0.2500    1  6.86414E-15 kpt; spin; max resid(k); each band:
  5.86E-15 1.63E-15 4.99E-15 1.29E-16 5.58E-15 6.86E-15
   0.3750 -0.1250  0.3750    1  4.73381E-15 kpt; spin; max resid(k); each band:
  4.73E-15 3.04E-15 4.71E-15 1.38E-16 3.50E-15 3.85E-15
 outwf : prtvol=0 or 1, do not print more k-points.
 
 
   outwf: writing wavefunctions to: ddbo_DS1_WFK with iomode: IO_MODE_FORTRAN_MASTER
 WFK output completed. cpu:  0.68 [s] , wall:  0.79 [s]
 prteigrs : about to open file ddbo_DS1_EIG
 Fermi (or HOMO) energy (hartree) =   0.14281   Average Vxc (hartree)=  -0.33848
 Eigenvalues (hartree) for nkpt=  72  k points:
 kpt#   1, nband=  6, wtk=  0.01563, kpt= -0.1250 -0.2500  0.0000 (reduced coord)
  -0.25443    0.03516    0.10574    0.10806    0.23187    0.28595
 kpt#   2, nband=  6, wtk=  0.01563, kpt= -0.2500 -0.1250  0.0000 (reduced coord)
  -0.25443    0.03516    0.10574    0.10806    0.23187    0.28595
 kpt#   3, nband=  6, wtk=  0.01563, kpt= -0.1250 -0.1250  0.1250 (reduced coord)
  -0.25443    0.03516    0.10574    0.10806    0.23187    0.28595
 kpt#   4, nband=  6, wtk=  0.01563, kpt= -0.1250  0.5000  0.0000 (reduced coord)
  -0.19429   -0.09171    0.07052    0.09679    0.23246    0.28130
 kpt#   5, nband=  6, wtk=  0.01563, kpt= -0.2500 -0.3750  0.0000 (reduced coord)
  -0.21656   -0.02770    0.05697    0.07362    0.20349    0.25987
 kpt#   6, nband=  6, wtk=  0.01563, kpt= -0.1250 -0.3750  0.1250 (reduced coord)
  -0.20131   -0.05975    0.03338    0.08371    0.25836    0.28282
 kpt#   7, nband=  6, wtk=  0.01563, kpt= -0.3750 -0.2500  0.0000 (reduced coord)
  -0.21656   -0.02770    0.05697    0.07362    0.20349    0.25987
 kpt#   8, nband=  6, wtk=  0.01563, kpt= -0.2500 -0.2500  0.1250 (reduced coord)
  -0.21656   -0.02770    0.05697    0.07362    0.20349    0.25987
 kpt#   9, nband=  6, wtk=  0.01563, kpt= -0.1250 -0.2500  0.2500 (reduced coord)
  -0.20131   -0.05975    0.03338    0.08371    0.25836    0.28282
 kpt#  10, nband=  6, wtk=  0.01563, kpt=  0.5000 -0.1250  0.0000 (reduced coord)
  -0.19429   -0.09171    0.07052    0.09679    0.23246    0.28130
 kpt#  11, nband=  6, wtk=  0.01563, kpt= -0.3750 -0.1250  0.1250 (reduced coord)
  -0.20131   -0.05975    0.03338    0.08371    0.25836    0.28282
 kpt#  12, nband=  6, wtk=  0.01563, kpt= -0.2500 -0.1250  0.2500 (reduced coord)
  -0.20131   -0.05975    0.03338    0.08371    0.25836    0.28282
 kpt#  13, nband=  6, wtk=  0.01563, kpt= -0.1250 -0.1250  0.3750 (reduced coord)
  -0.19429   -0.09171    0.07052    0.09679    0.23246    0.28130
 kpt#  14, nband=  6, wtk=  0.01563, kpt= -0.1250  0.2500  0.0000 (reduced coord)
  -0.23612   -0.01540    0.06976    0.12515    0.25043    0.28758
 kpt#  15, nband=  6, wtk=  0.01563, kpt= -0.2500  0.3750  0.0000 (reduced coord)
  -0.17609   -0.08862    0.00935    0.08513    0.22131    0.35195
 kpt#  16, nband=  6, wtk=  0.01563, kpt= -0.3750  0.5000  0.0000 (reduced coord)
  -0.16252   -0.09618    0.02963    0.05646    0.18738    0.22614
 kpt#  17, nband=  6, wtk=  0.01563, kpt= -0.2500  0.5000  0.1250 (reduced coord)
  -0.15637   -0.09975    0.00722    0.04678    0.24119    0.31018
 kpt#  18, nband=  6, wtk=  0.01563, kpt=  0.5000 -0.3750  0.0000 (reduced coord)
  -0.16252   -0.09618    0.02963    0.05646    0.18738    0.22614
 kpt#  19, nband=  6, wtk=  0.01563, kpt= -0.3750 -0.3750  0.1250 (reduced coord)
  -0.16252   -0.09618    0.02963    0.05646    0.18738    0.22614
 kpt#  20, nband=  6, wtk=  0.01563, kpt= -0.2500 -0.3750  0.2500 (reduced coord)
  -0.15637   -0.09975    0.00722    0.04678    0.24119    0.31018
 kpt#  21, nband=  6, wtk=  0.01563, kpt= -0.1250 -0.3750  0.3750 (reduced coord)
  -0.15637   -0.09975    0.00722    0.04678    0.24119    0.31018
 kpt#  22, nband=  6, wtk=  0.01563, kpt=  0.3750 -0.2500  0.0000 (reduced coord)
  -0.17609   -0.08862    0.00935    0.08513    0.22131    0.35269
 kpt#  23, nband=  6, wtk=  0.01563, kpt=  0.5000 -0.2500  0.1250 (reduced coord)
  -0.15637   -0.09975    0.00722    0.04678    0.24119    0.31018
 kpt#  24, nband=  6, wtk=  0.01563, kpt= -0.3750 -0.2500  0.2500 (reduced coord)
  -0.15637   -0.09975    0.00722    0.04678    0.24119    0.31018
 kpt#  25, nband=  6, wtk=  0.01563, kpt= -0.2500 -0.2500  0.3750 (reduced coord)
  -0.17609   -0.08862    0.00935    0.08513    0.22131    0.35179
 kpt#  26, nband=  6, wtk=  0.01563, kpt= -0.1250 -0.2500  0.5000 (reduced coord)
  -0.20131   -0.05975    0.03338    0.08371    0.25836    0.28282
 kpt#  27, nband=  6, wtk=  0.01563, kpt=  0.2500 -0.1250  0.0000 (reduced coord)
  -0.23612   -0.01540    0.06976    0.12515    0.25043    0.28753
 kpt#  28, nband=  6, wtk=  0.01563, kpt=  0.3750 -0.1250  0.1250 (reduced coord)
  -0.20131   -0.05975    0.03338    0.08371    0.25836    0.28282
 kpt#  29, nband=  6, wtk=  0.01563, kpt=  0.5000 -0.1250  0.2500 (reduced coord)
  -0.15637   -0.09975    0.00722    0.04678    0.24119    0.31018
 kpt#  30, nband=  6, wtk=  0.01563, kpt= -0.3750 -0.1250  0.3750 (reduced coord)
  -0.15637   -0.09975    0.00722    0.04678    0.24119    0.31018
 kpt#  31, nband=  6, wtk=  0.01563, kpt= -0.2500 -0.1250  0.5000 (reduced coord)
  -0.20131   -0.05975    0.03338    0.08371    0.25836    0.28282
 kpt#  32, nband=  6, wtk=  0.01563, kpt= -0.1250 -0.1250 -0.3750 (reduced coord)
  -0.23612   -0.01540    0.06976    0.12515    0.25043    0.28762
 kpt#  33, nband=  6, wtk=  0.01563, kpt= -0.1250  0.0000  0.0000 (reduced coord)
  -0.27381    0.09459    0.14281    0.14281    0.24255    0.26216
 kpt#  34, nband=  6, wtk=  0.01563, kpt=  0.5000  0.5000  0.1250 (reduced coord)
  -0.16252   -0.09618    0.02963    0.05646    0.18738    0.22614
 kpt#  35, nband=  6, wtk=  0.01563, kpt= -0.3750  0.5000  0.2500 (reduced coord)
  -0.15637   -0.09975    0.00722    0.04678    0.24119    0.31018
 kpt#  36, nband=  6, wtk=  0.01563, kpt=  0.3750 -0.3750  0.1250 (reduced coord)
  -0.15637   -0.09975    0.00722    0.04678    0.24119    0.31018
 kpt#  37, nband=  6, wtk=  0.01563, kpt=  0.5000 -0.3750  0.2500 (reduced coord)
  -0.15637   -0.09975    0.00722    0.04678    0.24119    0.31018
 kpt#  38, nband=  6, wtk=  0.01563, kpt= -0.3750 -0.3750  0.3750 (reduced coord)
  -0.17609   -0.08862    0.00935    0.08513    0.22131    0.35238
 kpt#  39, nband=  6, wtk=  0.01563, kpt= -0.2500 -0.3750  0.5000 (reduced coord)
  -0.20131   -0.05975    0.03338    0.08371    0.25836    0.28282
 kpt#  40, nband=  6, wtk=  0.01563, kpt= -0.1250 -0.3750 -0.3750 (reduced coord)
  -0.21656   -0.02770    0.05697    0.07362    0.20349    0.25987
 kpt#  41, nband=  6, wtk=  0.01563, kpt=  0.2500 -0.2500  0.1250 (reduced coord)
  -0.20131   -0.05975    0.03338    0.08371    0.25836    0.28282
 kpt#  42, nband=  6, wtk=  0.01563, kpt=  0.3750 -0.2500  0.2500 (reduced coord)
  -0.15637   -0.09975    0.00722    0.04678    0.24119    0.31018
 kpt#  43, nband=  6, wtk=  0.01563, kpt=  0.5000 -0.2500  0.3750 (reduced coord)
  -0.15637   -0.09975    0.00722    0.04678    0.24119    0.31018
 kpt#  44, nband=  6, wtk=  0.01563, kpt= -0.3750 -0.2500  0.5000 (reduced coord)
  -0.20131   -0.05975    0.03338    0.08371    0.25836    0.28282
 kpt#  45, nband=  6, wtk=  0.01563, kpt= -0.2500 -0.2500 -0.3750 (reduced coord)
  -0.23612   -0.01540    0.06976    0.12515    0.25043    0.28755
 kpt#  46, nband=  6, wtk=  0.01563, kpt= -0.1250 -0.2500 -0.2500 (reduced coord)
  -0.25443    0.03516    0.10574    0.10806    0.23187    0.28595
 kpt#  47, nband=  6, wtk=  0.00781, kpt=  0.0000 -0.1250  0.0000 (reduced coord)
  -0.27381    0.09459    0.14281    0.14281    0.24255    0.26216
 kpt#  48, nband=  6, wtk=  0.00781, kpt=  0.1250 -0.1250  0.1250 (reduced coord)
  -0.25443    0.03516    0.10574    0.10806    0.23187    0.28595
 kpt#  49, nband=  6, wtk=  0.00781, kpt=  0.2500 -0.1250  0.2500 (reduced coord)
  -0.21656   -0.02770    0.05697    0.07362    0.20349    0.25987
 kpt#  50, nband=  6, wtk=  0.00781, kpt=  0.3750 -0.1250  0.3750 (reduced coord)
  -0.16252   -0.09618    0.02963    0.05646    0.18738    0.22614
 prteigrs : prtvol=0 or 1, do not print more k-points.
 
 Total charge density [el/Bohr^3]
      Maximum=    8.4019E-02  at reduced coord.    0.1000    0.7000    0.1000
 Next maximum=    8.4019E-02  at reduced coord.    0.1000    0.1000    0.7000
      Minimum=    1.4932E-03  at reduced coord.    0.0000    0.0000    0.0000
 Next minimum=    2.8744E-03  at reduced coord.    0.2667    0.2333    0.2333
   Integrated=    8.0000E+00
 
 Cartesian components of stress tensor (hartree/bohr^3)
  sigma(1 1)=  1.34889708E-06  sigma(3 2)= -1.65132813E-10
  sigma(2 2)=  1.34842087E-06  sigma(3 1)=  4.06453829E-11
  sigma(3 3)=  1.34842087E-06  sigma(2 1)=  4.06453826E-11
 
-Cartesian components of stress tensor (GPa)         [Pressure= -3.9677E-02 GPa]
- sigma(1 1)=  3.96859156E-02  sigma(3 2)= -4.85837428E-06
- sigma(2 2)=  3.96719050E-02  sigma(3 1)=  1.19582825E-06
- sigma(3 3)=  3.96719050E-02  sigma(2 1)=  1.19582824E-06
 
================================================================================
== DATASET  2 ==================================================================
-   nproc =   28
 
 
--- !COMMENT
src_file: m_xgScalapack.F90
src_line: 237
message: |
    xgScalapack in auto mode
...
 
 mkfilename : getwfk/=0, take file _WFK from output of DATASET   1.
 
 
 getdim_nloc : deduce lmnmax  =  18, lnmax  =   6,
                      lmnmaxso=  18, lnmaxso=   6.
 Exchange-correlation functional for the present dataset will be:
  GGA: Perdew-Burke-Ernzerhof functional - ixc=11
 Citation for XC functional:
  J.P.Perdew, K.Burke, M.Ernzerhof, PRL 77, 3865 (1996)
 
 Unit cell volume ucvol=  2.7594266E+02 bohr^3
 Angles (23,13,12)=  6.00000022E+01  5.99999957E+01  6.00000022E+01 degrees
 setup1 : take into account q-point for computing boxcut.
 
 getcut: wavevector=  0.0000  0.0000  0.0000  ngfft=  30  30  30
         ecut(hartree)=     16.000   => boxcut(ratio)=   2.28244
 
 getcut : COMMENT -
  Note that boxcut > 2.2 ; recall that boxcut=Gcut(box)/Gcut(sphere) = 2
  is sufficient for exact treatment of convolution.
  Such a large boxcut is a waste : you could raise ecut
  e.g. ecut=   20.838208 Hartrees makes boxcut=2
 
 inwffil: examining the header of disk file: ddbo_DS1_WFK
 
================================================================================
 
          - hdr_check: checking restart file header for consistency -
 
 
        current calculation                         restart file
        -------------------                         ------------
 
  calculation expects a wf_planewave    |  input file contains a wf_planewave
. ABINIT  code version 8.11.1           |  ABINIT  code version 8.11.1
. date 20200110 bantot  768 natom    2  |  date 20200110 bantot  432 natom    2
  nkpt 128 nsym  4 ngfft  30,  30,  30  |  nkpt  72 nsym  4 ngfft  30,  30,  30
  ntypat  1 ecut_eff  16.0000000        |  ntypat  1 ecut_eff  16.0000000
  usepaw  0                             |  usepaw  0
  usewvl  0                             |  usewvl  0
  rprimd:                               |  rprimd:
     5.1672919   5.1672912   0.0000000  |     5.1672919   5.1672912   0.0000000
     0.0000000   5.1672911   5.1672911  |     0.0000000   5.1672911   5.1672911
     5.1672919   0.0000000   5.1672912  |     5.1672919   0.0000000   5.1672912
 
--- !COMMENT
src_file: m_hdr.F90
src_line: 3943
message: |
    input nkpt=128 not equal disk file nkpt=72
...
 
  symafm:                               |  symafm:
    1  1  1  1                          |    1  1  1  1
  symrel:                               |  symrel:
    1  0  0  0  1  0  0  0  1           |    1  0  0  0  1  0  0  0  1
   -1  0  0  0 -1  0  0  0 -1           |   -1  0  0  0 -1  0  0  0 -1
    0  0 -1  0 -1  0 -1  0  0           |    0  0 -1  0 -1  0 -1  0  0
    0  0  1  0  1  0  1  0  0           |    0  0  1  0  1  0  1  0  0
  typat:                                |  typat:
    1  1                                |    1  1
  so_psp  :                             |  so_psp  :
    1                                   |    1
 
--- !COMMENT
src_file: m_hdr.F90
src_line: 4191
message: |
    input kptopt = 2  /= disk file kptopt = 1
...
 
  tnons:                                |  tnons:
     0.0000000   0.0000000   0.0000000  |     0.0000000   0.0000000   0.0000000
     0.2500000   0.2500000   0.2500000  |     0.2500000   0.2500000   0.2500000
     0.2500000   0.2500000   0.2500000  |     0.2500000   0.2500000   0.2500000
     0.0000000   0.0000000   0.0000000  |     0.0000000   0.0000000   0.0000000
   znucl:                               |   znucl:
   14.00                                |   14.00
  pseudopotential atom type  1:         |  pseudopotential atom type  1:
  pspso   0 pspxc  11                   |  pspso   0 pspxc  11
  pspdat 170510 pspcod    8 zion   4.0  |  pspdat 170510 pspcod    8 zion   4.0
  xred:                                 |  xred:
     0.0000000   0.0000000   0.0000000  |     0.0000000   0.0000000   0.0000000
     0.2500000   0.2500000   0.2500000  |     0.2500000   0.2500000   0.2500000
 
--- !COMMENT
src_file: m_hdr.F90
src_line: 4474
message: |
    Restart of self-consistent calculation need translated wavefunctions.
...
 
  Indeed, critical differences between current calculation and
  restart file have been detected in:
        * the number, position, or weight of k-points
        * the format of wavefunctions (istwfk)
================================================================================
-inwffil : will read wavefunctions from disk file ddbo_DS1_WFK
 initwf: disk file gives npw= 856 nband= 6 for kpt number= 1
 initwf: 6 bands have been initialized from disk
 initwf: disk file gives npw= 856 nband= 6 for kpt number= 2
 initwf: 6 bands have been initialized from disk
 initwf: disk file gives npw= 856 nband= 6 for kpt number= 3
 initwf: 6 bands have been initialized from disk
 initwf: disk file gives npw= 840 nband= 6 for kpt number= 4
 initwf: 6 bands have been initialized from disk
 initwf: disk file gives npw= 840 nband= 6 for kpt number= 5
 initwf: 6 bands have been initialized from disk
- newkpt: read input wf with ikpt,npw=   1     856, make ikpt,npw=   1     856
- newkpt: read input wf with ikpt,npw=   2     856, make ikpt,npw=   2     856
- newkpt: read input wf with ikpt,npw=   3     856, make ikpt,npw=   3     856
- newkpt: read input wf with ikpt,npw=   4     840, make ikpt,npw=   4     840
- newkpt: read input wf with ikpt,npw=   5     840, make ikpt,npw=   5     840
 
 respfn : eigen0 array
 
 getcut: wavevector=  0.0000  0.0000  0.0000  ngfft=  30  30  30
         ecut(hartree)=     16.000   => boxcut(ratio)=   2.28244
 
 getcut : COMMENT -
  Note that boxcut > 2.2 ; recall that boxcut=Gcut(box)/Gcut(sphere) = 2
  is sufficient for exact treatment of convolution.
  Such a large boxcut is a waste : you could raise ecut
  e.g. ecut=   20.838208 Hartrees makes boxcut=2
 
 mkrho: echo density (plane-wave part only)
 Total charge density [el/Bohr^3]
      Maximum=    8.4019E-02  at reduced coord.    0.1000    0.7000    0.1000
      Minimum=    1.4932E-03  at reduced coord.    0.0000    0.0000    0.0000
   Integrated=    8.0000E+00
 
 ==>  initialize data related to q vector <== 
 
 respfn : the norm of the phonon wavelength (as input) was small (<1.d-7).
  q has been set exactly to (0 0 0)
 The list of irreducible perturbations for this q vector is:
    1)    idir= 1    ipert=   3
    2)    idir= 2    ipert=   3
    3)    idir= 3    ipert=   3
 
================================================================================
 Real(R)+Recip(G) space primitive vectors, cartesian coordinates (Bohr,Bohr^-1):
 R(1)=  5.1672919  5.1672912  0.0000000  G(1)=  0.0967625  0.0967625 -0.0967625
 R(2)=  0.0000000  5.1672911  5.1672911  G(2)= -0.0967625  0.0967625  0.0967625
 R(3)=  5.1672919  0.0000000  5.1672912  G(3)=  0.0967625 -0.0967625  0.0967625
 Unit cell volume ucvol=  2.7594266E+02 bohr^3
 Unit cell volume ucvol=  2.7594266E+02 bohr^3
 Angles (23,13,12)=  6.00000022E+01  5.99999957E+01  6.00000022E+01 degrees
 Angles (23,13,12)=  6.00000022E+01  5.99999957E+01  6.00000022E+01 degrees
 
 getcut: wavevector=  0.0000  0.0000  0.0000  ngfft=  30  30  30
         ecut(hartree)=     16.000   => boxcut(ratio)=   2.28244
 
 getcut : COMMENT -
  Note that boxcut > 2.2 ; recall that boxcut=Gcut(box)/Gcut(sphere) = 2
  is sufficient for exact treatment of convolution.
  Such a large boxcut is a waste : you could raise ecut
  e.g. ecut=   20.838208 Hartrees makes boxcut=2
 
 
--------------------------------------------------------------------------------
 Perturbation wavevector (in red.coord.)   0.000000  0.000000  0.000000
 Perturbation : derivative vs k along direction   1
 littlegroup_pert: only one element in the set of symmetries for this perturbation:
   1   0   0   0   1   0   0   0   1
 symkpt : not enough symmetry to change the number of k points.
 getmpw: optimal value of mpw= 863
 inwffil: examining the header of disk file: ddbo_DS1_WFK
 
================================================================================
 
          - hdr_check: checking restart file header for consistency -
 
 
        current calculation                         restart file
        -------------------                         ------------
 
  calculation expects a wf_planewave    |  input file contains a wf_planewave
. ABINIT  code version 8.11.1           |  ABINIT  code version 8.11.1
. date 20200110 bantot  768 natom    2  |  date 20200110 bantot  432 natom    2
  nkpt 128 nsym  4 ngfft  30,  30,  30  |  nkpt  72 nsym  4 ngfft  30,  30,  30
  ntypat  1 ecut_eff  16.0000000        |  ntypat  1 ecut_eff  16.0000000
  usepaw  0                             |  usepaw  0
  usewvl  0                             |  usewvl  0
  rprimd:                               |  rprimd:
     5.1672919   5.1672912   0.0000000  |     5.1672919   5.1672912   0.0000000
     0.0000000   5.1672911   5.1672911  |     0.0000000   5.1672911   5.1672911
     5.1672919   0.0000000   5.1672912  |     5.1672919   0.0000000   5.1672912
 
--- !COMMENT
src_file: m_hdr.F90
src_line: 3943
message: |
    input nkpt=128 not equal disk file nkpt=72
...
 
  symafm:                               |  symafm:
    1  1  1  1                          |    1  1  1  1
  symrel:                               |  symrel:
    1  0  0  0  1  0  0  0  1           |    1  0  0  0  1  0  0  0  1
   -1  0  0  0 -1  0  0  0 -1           |   -1  0  0  0 -1  0  0  0 -1
    0  0 -1  0 -1  0 -1  0  0           |    0  0 -1  0 -1  0 -1  0  0
    0  0  1  0  1  0  1  0  0           |    0  0  1  0  1  0  1  0  0
  typat:                                |  typat:
    1  1                                |    1  1
  so_psp  :                             |  so_psp  :
    1                                   |    1
 
--- !COMMENT
src_file: m_hdr.F90
src_line: 4191
message: |
    input kptopt = 2  /= disk file kptopt = 1
...
 
  tnons:                                |  tnons:
     0.0000000   0.0000000   0.0000000  |     0.0000000   0.0000000   0.0000000
     0.2500000   0.2500000   0.2500000  |     0.2500000   0.2500000   0.2500000
     0.2500000   0.2500000   0.2500000  |     0.2500000   0.2500000   0.2500000
     0.0000000   0.0000000   0.0000000  |     0.0000000   0.0000000   0.0000000
   znucl:                               |   znucl:
   14.00                                |   14.00
  pseudopotential atom type  1:         |  pseudopotential atom type  1:
  pspso   0 pspxc  11                   |  pspso   0 pspxc  11
  pspdat 170510 pspcod    8 zion   4.0  |  pspdat 170510 pspcod    8 zion   4.0
  xred:                                 |  xred:
     0.0000000   0.0000000   0.0000000  |     0.0000000   0.0000000   0.0000000
     0.2500000   0.2500000   0.2500000  |     0.2500000   0.2500000   0.2500000
 
--- !COMMENT
src_file: m_hdr.F90
src_line: 4474
message: |
    Restart of self-consistent calculation need translated wavefunctions.
...
 
  Indeed, critical differences between current calculation and
  restart file have been detected in:
        * the number, position, or weight of k-points
        * the format of wavefunctions (istwfk)
================================================================================
-inwffil : will read wavefunctions from disk file ddbo_DS1_WFK
 initwf: disk file gives npw= 856 nband= 6 for kpt number= 1
 initwf: 6 bands have been initialized from disk
 initwf: disk file gives npw= 856 nband= 6 for kpt number= 2
 initwf: 6 bands have been initialized from disk
 initwf: disk file gives npw= 856 nband= 6 for kpt number= 3
 initwf: 6 bands have been initialized from disk
 initwf: disk file gives npw= 840 nband= 6 for kpt number= 4
 initwf: 6 bands have been initialized from disk
 initwf: disk file gives npw= 840 nband= 6 for kpt number= 5
 initwf: 6 bands have been initialized from disk
- newkpt: read input wf with ikpt,npw=   1     856, make ikpt,npw=   1     856
- newkpt: read input wf with ikpt,npw=   2     856, make ikpt,npw=   2     856
- newkpt: read input wf with ikpt,npw=   3     856, make ikpt,npw=   3     856
- newkpt: read input wf with ikpt,npw=   4     840, make ikpt,npw=   4     840
- newkpt: read input wf with ikpt,npw=   5     840, make ikpt,npw=   5     840
 getmpw: optimal value of mpw= 863
 qpt is Gamma, psi_k+q initialized from psi_k in memory
 Initialisation of the first-order wave-functions :
  ireadwf=   0
 wfconv:     6 bands set=0 with npw=    856, for ikpt=   1
 wfconv:     6 bands set=0 with npw=    856, for ikpt=   2
 wfconv:     6 bands set=0 with npw=    856, for ikpt=   3
 wfconv:     6 bands set=0 with npw=    840, for ikpt=   4
 wfconv:     6 bands set=0 with npw=    840, for ikpt=   5
 
 getcut: wavevector=  0.0000  0.0000  0.0000  ngfft=  30  30  30
         ecut(hartree)=     16.000   => boxcut(ratio)=   2.28244
 
 getcut : COMMENT -
  Note that boxcut > 2.2 ; recall that boxcut=Gcut(box)/Gcut(sphere) = 2
  is sufficient for exact treatment of convolution.
  Such a large boxcut is a waste : you could raise ecut
  e.g. ecut=   20.838208 Hartrees makes boxcut=2
 
-ETOT  1  -8.6190161106260     -8.619E+00 1.845E+01 0.000E+00
 dfpt_scfcv: previous iteration took  0.47 [s]
 ETOT  2  -8.6220997350823     -3.084E-03 7.654E+00 0.000E+00
 dfpt_scfcv: previous iteration took  0.51 [s]
 ETOT  3  -8.6221063552359     -6.620E-06 5.917E+00 0.000E+00
 dfpt_scfcv: previous iteration took  0.47 [s]
 ETOT  4  -8.6221063888108     -3.357E-08 7.196E+00 0.000E+00
 dfpt_scfcv: previous iteration took  0.47 [s]
 ETOT  5  -8.6221063890433     -2.324E-10 4.196E+00 0.000E+00
 dfpt_scfcv: previous iteration took  0.48 [s]
 ETOT  6  -8.6221063890451     -1.844E-12 1.814E+00 0.000E+00
 dfpt_scfcv: previous iteration took  0.50 [s]
 ETOT  7  -8.6221063890451     -1.776E-14 7.196E+00 0.000E+00
 dfpt_scfcv: previous iteration took  0.44 [s]
 ETOT  8  -8.6221063890451      3.553E-15 4.196E+00 0.000E+00
 dfpt_scfcv: previous iteration took  0.35 [s]
 ETOT  9  -8.6221063890451     -5.329E-15 3.701E+00 0.000E+00
 dfpt_scfcv: previous iteration took  0.29 [s]
 ETOT 10  -8.6221063890451      7.105E-15 7.196E+00 0.000E+00
 dfpt_scfcv: previous iteration took  0.30 [s]
 ETOT 11  -8.6221063890451     -3.553E-15 4.196E+00 0.000E+00
 dfpt_scfcv: previous iteration took  0.28 [s]
 ETOT 12  -8.6221063890451      0.000E+00 1.811E+00 0.000E+00
 dfpt_scfcv: previous iteration took  0.30 [s]
 ETOT 13  -8.6221063890451     -1.776E-15 7.196E+00 0.000E+00
 dfpt_scfcv: previous iteration took  0.26 [s]
 ETOT 14  -8.6221063890451      1.776E-15 4.196E+00 0.000E+00
 dfpt_scfcv: previous iteration took  0.27 [s]
 ETOT 15  -8.6221063890451      0.000E+00 3.574E+00 0.000E+00
 dfpt_scfcv: previous iteration took  0.27 [s]
 ETOT 16  -8.6221063890451      5.329E-15 7.196E+00 0.000E+00
 dfpt_scfcv: previous iteration took  0.27 [s]
 ETOT 17  -8.6221063890451      0.000E+00 4.196E+00 0.000E+00
 dfpt_scfcv: previous iteration took  0.25 [s]
 ETOT 18  -8.6221063890451     -1.776E-15 1.784E+00 0.000E+00
 dfpt_scfcv: previous iteration took  0.25 [s]
 ETOT 19  -8.6221063890451     -3.553E-15 7.196E+00 0.000E+00
 dfpt_scfcv: previous iteration took  0.23 [s]
 ETOT 20  -8.6221063890451     -1.776E-15 4.196E+00 0.000E+00
 dfpt_scfcv: previous iteration took  0.27 [s]
 ETOT 21  -8.6221063890451      3.553E-15 3.461E+00 0.000E+00
 dfpt_scfcv: previous iteration took  0.29 [s]
 ETOT 22  -8.6221063890451      0.000E+00 7.196E+00 0.000E+00
 dfpt_scfcv: previous iteration took  0.26 [s]
 ETOT 23  -8.6221063890451      0.000E+00 4.196E+00 0.000E+00
 dfpt_scfcv: previous iteration took  0.26 [s]
 ETOT 24  -8.6221063890451      0.000E+00 1.749E+00 0.000E+00
 dfpt_scfcv: previous iteration took  0.24 [s]
 ETOT 25  -8.6221063890451      1.776E-15 7.196E+00 0.000E+00
 dfpt_scfcv: previous iteration took  0.24 [s]
 ETOT 26  -8.6221063890451      0.000E+00 4.196E+00 0.000E+00
 dfpt_scfcv: previous iteration took  0.22 [s]
 ETOT 27  -8.6221063890451     -1.776E-15 3.357E+00 0.000E+00
 dfpt_scfcv: previous iteration took  0.25 [s]
 ETOT 28  -8.6221063890451      0.000E+00 7.196E+00 0.000E+00
 dfpt_scfcv: previous iteration took  0.26 [s]
 ETOT 29  -8.6221063890451     -3.553E-15 4.196E+00 0.000E+00
 dfpt_scfcv: previous iteration took  0.28 [s]
 ETOT 30  -8.6221063890451      3.553E-15 1.711E+00 0.000E+00
 dfpt_scfcv: previous iteration took  0.26 [s]
 ETOT 31  -8.6221063890451      0.000E+00 7.196E+00 0.000E+00
 dfpt_scfcv: previous iteration took  0.27 [s]
 ETOT 32  -8.6221063890451     -1.776E-15 4.196E+00 0.000E+00
 dfpt_scfcv: previous iteration took  0.26 [s]
 ETOT 33  -8.6221063890451      0.000E+00 3.260E+00 0.000E+00
 dfpt_scfcv: previous iteration took  0.22 [s]
 ETOT 34  -8.6221063890451      0.000E+00 7.196E+00 0.000E+00
 dfpt_scfcv: previous iteration took  0.24 [s]
 ETOT 35  -8.6221063890451      0.000E+00 4.196E+00 0.000E+00
 dfpt_scfcv: previous iteration took  0.26 [s]
 ETOT 36  -8.6221063890451      0.000E+00 1.673E+00 0.000E+00
 dfpt_scfcv: previous iteration took  0.24 [s]
 ETOT 37  -8.6221063890451      0.000E+00 7.196E+00 0.000E+00
 dfpt_scfcv: previous iteration took  0.22 [s]
 ETOT 38  -8.6221063890451      0.000E+00 4.196E+00 0.000E+00
 dfpt_scfcv: previous iteration took  0.22 [s]
 ETOT 39  -8.6221063890451      0.000E+00 3.169E+00 0.000E+00
 dfpt_scfcv: previous iteration took  0.26 [s]
 ETOT 40  -8.6221063890451      0.000E+00 7.196E+00 0.000E+00

--- !ScfConvergenceWarning
message: |
    nstep 40 was not enough SCF cycles to converge.
...
 
 scprqt:  WARNING -
  nstep=   40 was not enough SCF cycles to converge;
  maximum residual each band. tolwfr=   1.000E-20
  iband, isppol, individual band residuals (max over all k-points):
     1     1  9.772E-21
     2     1  9.266E-21
     3     1  9.957E-21
     4     1  9.895E-21
     5     1  9.976E-21
     6     1  7.196E+00
  maximum residual=  7.196E+00 exceeds tolwfr=  1.000E-20
 
 
   fftdatar_write: About to write data to: ddbo_DS2_DEN7 with iomode: IO_MODE_FORTRAN
 IO operation completed. cpu:  0.00 [s] , wall:  0.01 [s]
 
   fftdatar_write: About to write data to: ddbo_DS2_POT7 with iomode: IO_MODE_FORTRAN
 IO operation completed. cpu:  0.00 [s] , wall:  0.00 [s]
================================================================================
 
 ----iterations are completed or convergence reached----
 
 Mean square residual over all n,k,spin=   14.690E-03; max=  71.964E-01
  -0.1250 -0.2500  0.0000    1  6.60929E-21 kpt; spin; max resid(k); each band:
  2.06E-21 4.62E-21 3.80E-21 3.72E-21 6.60E-21 6.61E-21
  -0.2500 -0.1250  0.0000    1  6.49076E-21 kpt; spin; max resid(k); each band:
  1.66E-21 2.94E-21 2.58E-21 6.49E-21 4.99E-21 4.72E-21
  -0.1250 -0.1250  0.1250    1  9.19949E-21 kpt; spin; max resid(k); each band:
  6.08E-21 5.70E-21 7.07E-21 6.36E-21 8.51E-21 9.20E-21
  -0.1250  0.5000  0.0000    1  4.32732E-21 kpt; spin; max resid(k); each band:
  4.33E-21 2.02E-21 4.32E-21 3.77E-21 4.25E-21 1.46E-21
  -0.2500 -0.3750  0.0000    1  9.00531E-21 kpt; spin; max resid(k); each band:
  9.01E-21 4.90E-21 2.59E-21 1.83E-21 4.26E-21 3.89E-21
  -0.1250 -0.3750  0.1250    1  7.71836E-21 kpt; spin; max resid(k); each band:
  7.47E-21 3.74E-21 7.72E-21 4.99E-21 6.59E-21 4.33E-21
  -0.3750 -0.2500  0.0000    1  9.75871E-21 kpt; spin; max resid(k); each band:
  1.69E-21 1.67E-21 2.94E-21 2.86E-21 9.32E-21 9.76E-21
  -0.2500 -0.2500  0.1250    1  9.89533E-21 kpt; spin; max resid(k); each band:
  1.57E-21 2.86E-21 4.16E-21 9.90E-21 8.06E-21 7.48E-21
  -0.1250 -0.2500  0.2500    1  5.76661E-21 kpt; spin; max resid(k); each band:
  1.61E-21 2.01E-21 5.77E-21 2.66E-21 5.53E-21 3.55E-21
   0.5000 -0.1250  0.0000    1  6.24151E-21 kpt; spin; max resid(k); each band:
  3.81E-21 6.24E-21 4.65E-21 4.64E-21 3.41E-21 4.51E-21
  -0.3750 -0.1250  0.1250    1  8.19859E-21 kpt; spin; max resid(k); each band:
  6.30E-21 4.19E-21 3.05E-21 4.90E-21 6.08E-21 8.20E-21
  -0.2500 -0.1250  0.2500    1  7.10231E-21 kpt; spin; max resid(k); each band:
  5.12E-21 5.16E-21 6.05E-21 2.83E-21 5.04E-21 7.10E-21
  -0.1250 -0.1250  0.3750    1  7.34370E-21 kpt; spin; max resid(k); each band:
  3.66E-21 1.56E-21 5.86E-21 4.36E-21 2.73E-21 7.34E-21
  -0.1250  0.2500  0.0000    1  8.49036E-12 kpt; spin; max resid(k); each band:
  2.40E-21 5.12E-21 6.13E-21 2.81E-21 4.09E-21 8.49E-12
  -0.2500  0.3750  0.0000    1  4.80985E-04 kpt; spin; max resid(k); each band:
  2.88E-21 1.37E-21 9.02E-21 2.71E-21 6.42E-21 4.81E-04
  -0.1250  0.3750  0.1250    1  7.10118E-21 kpt; spin; max resid(k); each band:
  5.12E-21 5.16E-21 6.05E-21 2.83E-21 5.04E-21 7.10E-21
  -0.3750  0.5000  0.0000    1  8.34247E-21 kpt; spin; max resid(k); each band:
  3.18E-21 6.24E-21 5.73E-21 3.13E-21 3.93E-21 8.34E-21
  -0.2500  0.5000  0.1250    1  6.70053E-21 kpt; spin; max resid(k); each band:
  6.70E-21 2.90E-21 1.60E-21 6.08E-21 4.25E-21 6.37E-21
  -0.1250  0.5000  0.2500    1  8.94958E-21 kpt; spin; max resid(k); each band:
  2.08E-21 2.25E-21 4.93E-21 8.95E-21 7.71E-21 4.76E-21
   0.5000 -0.3750  0.0000    1  7.43754E-21 kpt; spin; max resid(k); each band:
  4.67E-21 7.32E-21 5.40E-21 7.44E-21 2.40E-21 6.59E-21
  -0.3750 -0.3750  0.1250    1  3.90389E-21 kpt; spin; max resid(k); each band:
  2.16E-21 2.19E-21 2.32E-21 1.06E-21 2.73E-21 3.90E-21
  -0.2500 -0.3750  0.2500    1  9.26640E-21 kpt; spin; max resid(k); each band:
  4.02E-21 9.27E-21 6.41E-21 5.86E-21 4.32E-21 7.84E-21
  -0.1250 -0.3750  0.3750    1  9.26450E-21 kpt; spin; max resid(k); each band:
  4.03E-21 9.26E-21 6.41E-21 5.86E-21 4.32E-21 7.81E-21
   0.3750 -0.2500  0.0000    1  9.10625E-02 kpt; spin; max resid(k); each band:
  1.37E-21 7.25E-21 4.04E-21 2.65E-21 2.66E-21 9.11E-02
   0.5000 -0.2500  0.1250    1  7.87661E-21 kpt; spin; max resid(k); each band:
  3.94E-21 6.01E-21 6.46E-21 6.68E-21 4.67E-21 7.88E-21
  -0.3750 -0.2500  0.2500    1  8.95070E-21 kpt; spin; max resid(k); each band:
  2.08E-21 2.25E-21 4.93E-21 8.95E-21 7.71E-21 4.76E-21
  -0.2500 -0.2500  0.3750    1  2.01714E-02 kpt; spin; max resid(k); each band:
  3.05E-21 5.66E-21 2.18E-21 3.24E-21 2.69E-21 2.02E-02
  -0.1250 -0.2500  0.5000    1  5.76763E-21 kpt; spin; max resid(k); each band:
  1.61E-21 2.01E-21 5.77E-21 2.66E-21 5.53E-21 3.55E-21
   0.2500 -0.1250  0.0000    1  1.87306E-18 kpt; spin; max resid(k); each band:
  2.90E-21 4.49E-21 7.11E-21 7.42E-21 2.89E-21 1.87E-18
   0.3750 -0.1250  0.1250    1  8.21361E-21 kpt; spin; max resid(k); each band:
  6.30E-21 4.19E-21 3.05E-21 4.90E-21 6.08E-21 8.21E-21
   0.5000 -0.1250  0.2500    1  7.88577E-21 kpt; spin; max resid(k); each band:
  3.94E-21 6.01E-21 6.46E-21 6.68E-21 4.67E-21 7.89E-21
  -0.3750 -0.1250  0.3750    1  6.69991E-21 kpt; spin; max resid(k); each band:
  6.70E-21 2.90E-21 1.60E-21 6.08E-21 4.25E-21 6.36E-21
  -0.2500 -0.1250  0.5000    1  7.71846E-21 kpt; spin; max resid(k); each band:
  7.47E-21 3.74E-21 7.72E-21 4.99E-21 6.59E-21 4.33E-21
  -0.1250 -0.1250 -0.3750    1  1.04535E-10 kpt; spin; max resid(k); each band:
  2.32E-21 5.31E-21 4.99E-21 3.52E-21 8.68E-21 1.05E-10
  -0.1250  0.0000  0.0000    1  3.57196E-12 kpt; spin; max resid(k); each band:
  3.46E-21 6.21E-21 3.57E-21 2.90E-21 8.31E-21 3.57E-12
  -0.1250  0.1250  0.1250    1  7.55323E-21 kpt; spin; max resid(k); each band:
  1.66E-21 2.94E-21 2.58E-21 6.49E-21 5.04E-21 7.55E-21
  -0.2500  0.2500  0.1250    1  8.21437E-21 kpt; spin; max resid(k); each band:
  6.30E-21 4.19E-21 3.05E-21 4.90E-21 6.08E-21 8.21E-21
  -0.1250  0.2500  0.2500    1  9.75871E-21 kpt; spin; max resid(k); each band:
  1.69E-21 1.67E-21 2.94E-21 2.86E-21 9.32E-21 9.76E-21
  -0.3750  0.3750  0.1250    1  7.88234E-21 kpt; spin; max resid(k); each band:
  3.94E-21 6.01E-21 6.46E-21 6.68E-21 4.67E-21 7.88E-21
  -0.2500  0.3750  0.2500    1  7.85975E-21 kpt; spin; max resid(k); each band:
  3.94E-21 6.01E-21 6.46E-21 6.68E-21 4.67E-21 7.86E-21
  -0.1250  0.3750  0.3750    1  7.32357E-21 kpt; spin; max resid(k); each band:
  4.67E-21 7.32E-21 5.40E-21 7.28E-21 2.40E-21 6.59E-21
   0.5000  0.5000  0.1250    1  3.90391E-21 kpt; spin; max resid(k); each band:
  2.16E-21 2.19E-21 2.32E-21 1.06E-21 2.73E-21 3.90E-21
  -0.3750  0.5000  0.2500    1  8.95344E-21 kpt; spin; max resid(k); each band:
  2.08E-21 2.25E-21 4.93E-21 8.95E-21 7.71E-21 4.76E-21
  -0.2500  0.5000  0.3750    1  6.69855E-21 kpt; spin; max resid(k); each band:
  6.70E-21 2.90E-21 1.60E-21 6.08E-21 4.25E-21 6.36E-21
  -0.1250  0.5000  0.5000    1  8.34246E-21 kpt; spin; max resid(k); each band:
  3.18E-21 6.24E-21 5.73E-21 3.43E-21 3.93E-21 8.34E-21
   0.3750 -0.3750  0.1250    1  6.69697E-21 kpt; spin; max resid(k); each band:
[...]
libmpi.so.1        00002AAAAE1634A9  Unknown               Unknown  Unknown
libmpi.so.1        00002AAAAE162E9E  Unknown               Unknown  Unknown
libmpi.so.1        00002AAAAE15862D  Unknown               Unknown  Unknown
libmpi.so.1        00002AAAAE073A06  Unknown               Unknown  Unknown
libmpi_mpifh.so.2  00002AAAADDC7BD6  Unknown               Unknown  Unknown
abinit             0000000001DF0D2A  Unknown               Unknown  Unknown
abinit             0000000000423D79  Unknown               Unknown  Unknown
abinit             000000000040C467  Unknown               Unknown  Unknown
abinit             0000000000409F96  Unknown               Unknown  Unknown
libc.so.6          0000003ED7A1ED5D  Unknown               Unknown  Unknown
abinit             0000000000409E89  Unknown               Unknown  Unknown
forrtl: error (78): process killed (SIGTERM)
Image              PC                Routine            Line        Source             
libirc.so          00002AAAAFBDC229  Unknown               Unknown  Unknown
libirc.so          00002AAAAFBDABA0  Unknown               Unknown  Unknown
libifcore.so.5     00002AAAAE8A333F  Unknown               Unknown  Unknown
libifcore.so.5     00002AAAAE80AD7F  Unknown               Unknown  Unknown
libifcore.so.5     00002AAAAE81BF4E  Unknown               Unknown  Unknown
libpthread.so.0    0000003ED7E0F710  Unknown               Unknown  Unknown
libpsm_infinipath  00002AAAB0EFDFE2  Unknown               Unknown  Unknown
libmpi.so.1        00002AAAAE1C64B6  Unknown               Unknown  Unknown
libopen-pal.so.6   00002AAAB147042B  Unknown               Unknown  Unknown
libmpi.so.1        00002AAAAE05D0AF  Unknown               Unknown  Unknown
libmpi.so.1        00002AAAAE1632A7  Unknown               Unknown  Unknown
libmpi.so.1        00002AAAAE162E9E  Unknown               Unknown  Unknown
libmpi.so.1        00002AAAAE15862D  Unknown               Unknown  Unknown
libmpi.so.1        00002AAAAE073A06  Unknown               Unknown  Unknown
libmpi_mpifh.so.2  00002AAAADDC7BD6  Unknown               Unknown  Unknown
abinit             0000000001DF0D2A  Unknown               Unknown  Unknown
abinit             0000000000423D79  Unknown               Unknown  Unknown
abinit             000000000040C467  Unknown               Unknown  Unknown
abinit             0000000000409F96  Unknown               Unknown  Unknown
libc.so.6          0000003ED7A1ED5D  Unknown               Unknown  Unknown
abinit             0000000000409E89  Unknown               Unknown  Unknown
forrtl: error (78): process killed (SIGTERM)
Image              PC                Routine            Line        Source             
libirc.so          00002AAAAFBDD229  Unknown               Unknown  Unknown
libirc.so          00002AAAAFBDBBA0  Unknown               Unknown  Unknown
libifcore.so.5     00002AAAAE8A433F  Unknown               Unknown  Unknown
libifcore.so.5     00002AAAAE80BD7F  Unknown               Unknown  Unknown
libifcore.so.5     00002AAAAE81CF4E  Unknown               Unknown  Unknown
libpthread.so.0    0000003C2A80F710  Unknown               Unknown  Unknown
libpsm_infinipath  00002AAAB0EFF06C  Unknown               Unknown  Unknown
libmpi.so.1        00002AAAAE1C74B6  Unknown               Unknown  Unknown
libopen-pal.so.6   00002AAAB147142B  Unknown               Unknown  Unknown
libmpi.so.1        00002AAAAE05E0AF  Unknown               Unknown  Unknown
libmpi.so.1        00002AAAAE1644A9  Unknown               Unknown  Unknown
libmpi.so.1        00002AAAAE163E9E  Unknown               Unknown  Unknown
libmpi.so.1        00002AAAAE15962D  Unknown               Unknown  Unknown
libmpi.so.1        00002AAAAE074A06  Unknown               Unknown  Unknown
libmpi_mpifh.so.2  00002AAAADDC8BD6  Unknown               Unknown  Unknown
abinit             0000000001DF0D2A  Unknown               Unknown  Unknown
abinit             0000000000423D79  Unknown               Unknown  Unknown
abinit             000000000040C467  Unknown               Unknown  Unknown
abinit             0000000000409F96  Unknown               Unknown  Unknown
libc.so.6          0000003C2A41ED5D  Unknown               Unknown  Unknown
abinit             0000000000409E89  Unknown               Unknown  Unknown
forrtl: error (78): process killed (SIGTERM)
Image              PC                Routine            Line        Source             
libirc.so          00002AAAAFBDD229  Unknown               Unknown  Unknown
libirc.so          00002AAAAFBDBBA0  Unknown               Unknown  Unknown
libifcore.so.5     00002AAAAE8A433F  Unknown               Unknown  Unknown
libifcore.so.5     00002AAAAE80BD7F  Unknown               Unknown  Unknown
libifcore.so.5     00002AAAAE81CF4E  Unknown               Unknown  Unknown
libpthread.so.0    0000003C2A80F710  Unknown               Unknown  Unknown
libpsm_infinipath  00002AAAB0EFF06C  Unknown               Unknown  Unknown
libmpi.so.1        00002AAAAE1C74B6  Unknown               Unknown  Unknown
libopen-pal.so.6   00002AAAB147142B  Unknown               Unknown  Unknown
libmpi.so.1        00002AAAAE05E0AF  Unknown               Unknown  Unknown
libmpi.so.1        00002AAAAE1644A9  Unknown               Unknown  Unknown
libmpi.so.1        00002AAAAE163E9E  Unknown               Unknown  Unknown
libmpi.so.1        00002AAAAE15962D  Unknown               Unknown  Unknown
libmpi.so.1        00002AAAAE074A06  Unknown               Unknown  Unknown
libmpi_mpifh.so.2  00002AAAADDC8BD6  Unknown               Unknown  Unknown
abinit             0000000001DF0D2A  Unknown               Unknown  Unknown
abinit             0000000000423D79  Unknown               Unknown  Unknown
abinit             000000000040C467  Unknown               Unknown  Unknown
abinit             0000000000409F96  Unknown               Unknown  Unknown
libc.so.6          0000003C2A41ED5D  Unknown               Unknown  Unknown
abinit             0000000000409E89  Unknown               Unknown  Unknown
forrtl: error (78): process killed (SIGTERM)
Image              PC                Routine            Line        Source             
libirc.so          00002AAAAFBDC229  Unknown               Unknown  Unknown
libirc.so          00002AAAAFBDABA0  Unknown               Unknown  Unknown
libifcore.so.5     00002AAAAE8A333F  Unknown               Unknown  Unknown
libifcore.so.5     00002AAAAE80AD7F  Unknown               Unknown  Unknown
libifcore.so.5     00002AAAAE81BF4E  Unknown               Unknown  Unknown
libpthread.so.0    00000030D640F710  Unknown               Unknown  Unknown
libmpi.so.1        00002AAAAE1C6490  Unknown               Unknown  Unknown
libopen-pal.so.6   00002AAAB147042B  Unknown               Unknown  Unknown
libmpi.so.1        00002AAAAE05D0AF  Unknown               Unknown  Unknown
libmpi.so.1        00002AAAAE1634A9  Unknown               Unknown  Unknown
libmpi.so.1        00002AAAAE162E9E  Unknown               Unknown  Unknown
libmpi.so.1        00002AAAAE15862D  Unknown               Unknown  Unknown
libmpi.so.1        00002AAAAE073A06  Unknown               Unknown  Unknown
libmpi_mpifh.so.2  00002AAAADDC7BD6  Unknown               Unknown  Unknown
abinit             0000000001DF0D2A  Unknown               Unknown  Unknown
abinit             0000000000423D79  Unknown               Unknown  Unknown
abinit             000000000040C467  Unknown               Unknown  Unknown
abinit             0000000000409F96  Unknown               Unknown  Unknown
libc.so.6          00000030D601ED5D  Unknown               Unknown  Unknown
abinit             0000000000409E89  Unknown               Unknown  Unknown
forrtl: error (78): process killed (SIGTERM)
Image              PC                Routine            Line        Source             
libirc.so          00002AAAAFBDC229  Unknown               Unknown  Unknown
libirc.so          00002AAAAFBDABA0  Unknown               Unknown  Unknown
libifcore.so.5     00002AAAAE8A333F  Unknown               Unknown  Unknown
libifcore.so.5     00002AAAAE80AD7F  Unknown               Unknown  Unknown
libifcore.so.5     00002AAAAE81BF4E  Unknown               Unknown  Unknown
libpthread.so.0    00000030D640F710  Unknown               Unknown  Unknown
libpsm_infinipath  00002AAAB0F003A8  Unknown               Unknown  Unknown
libpsm_infinipath  00002AAAB0F002B5  Unknown               Unknown  Unknown
libpsm_infinipath  00002AAAB0EFE07D  Unknown               Unknown  Unknown
libmpi.so.1        00002AAAAE1C64B6  Unknown               Unknown  Unknown
libopen-pal.so.6   00002AAAB147042B  Unknown               Unknown  Unknown
libmpi.so.1        00002AAAAE05D0AF  Unknown               Unknown  Unknown
libmpi.so.1        00002AAAAE1634A9  Unknown               Unknown  Unknown
libmpi.so.1        00002AAAAE162E9E  Unknown               Unknown  Unknown
libmpi.so.1        00002AAAAE15862D  Unknown               Unknown  Unknown
libmpi.so.1        00002AAAAE073A06  Unknown               Unknown  Unknown
libmpi_mpifh.so.2  00002AAAADDC7BD6  Unknown               Unknown  Unknown
abinit             0000000001DF0D2A  Unknown               Unknown  Unknown
abinit             0000000000423D79  Unknown               Unknown  Unknown
abinit             000000000040C467  Unknown               Unknown  Unknown
abinit             0000000000409F96  Unknown               Unknown  Unknown
libc.so.6          00000030D601ED5D  Unknown               Unknown  Unknown
abinit             0000000000409E89  Unknown               Unknown  Unknown
forrtl: error (78): process killed (SIGTERM)
Image              PC                Routine            Line        Source             
libirc.so          00002AAAAFBDC229  Unknown               Unknown  Unknown
libirc.so          00002AAAAFBDABA0  Unknown               Unknown  Unknown
libifcore.so.5     00002AAAAE8A333F  Unknown               Unknown  Unknown
libifcore.so.5     00002AAAAE80AD7F  Unknown               Unknown  Unknown
libifcore.so.5     00002AAAAE81BF4E  Unknown               Unknown  Unknown
libpthread.so.0    0000003D9B60F710  Unknown               Unknown  Unknown
libopen-pal.so.6   00002AAAB14703AA  Unknown               Unknown  Unknown
libmpi.so.1        00002AAAAE05D0AF  Unknown               Unknown  Unknown
libmpi.so.1        00002AAAAE1634A9  Unknown               Unknown  Unknown
libmpi.so.1        00002AAAAE162E9E  Unknown               Unknown  Unknown
libmpi.so.1        00002AAAAE15862D  Unknown               Unknown  Unknown
libmpi.so.1        00002AAAAE073A06  Unknown               Unknown  Unknown
libmpi_mpifh.so.2  00002AAAADDC7BD6  Unknown               Unknown  Unknown
abinit             0000000001DF0D2A  Unknown               Unknown  Unknown
abinit             0000000000423D79  Unknown               Unknown  Unknown
abinit             000000000040C467  Unknown               Unknown  Unknown
abinit             0000000000409F96  Unknown               Unknown  Unknown
libc.so.6          0000003D9B21ED5D  Unknown               Unknown  Unknown
abinit             0000000000409E89  Unknown               Unknown  Unknown
forrtl: error (78): process killed (SIGTERM)
Image              PC                Routine            Line        Source             
libirc.so          00002AAAAFBDC229  Unknown               Unknown  Unknown
libirc.so          00002AAAAFBDABA0  Unknown               Unknown  Unknown
libifcore.so.5     00002AAAAE8A333F  Unknown               Unknown  Unknown
libifcore.so.5     00002AAAAE80AD7F  Unknown               Unknown  Unknown
libifcore.so.5     00002AAAAE81BF4E  Unknown               Unknown  Unknown
libpthread.so.0    0000003D9B60F710  Unknown               Unknown  Unknown
libpsm_infinipath  00002AAAB0F003A8  Unknown               Unknown  Unknown
libpsm_infinipath  00002AAAB0F002B5  Unknown               Unknown  Unknown
libpsm_infinipath  00002AAAB0EFE07D  Unknown               Unknown  Unknown
libmpi.so.1        00002AAAAE1C64B6  Unknown               Unknown  Unknown
libopen-pal.so.6   00002AAAB147042B  Unknown               Unknown  Unknown
libmpi.so.1        00002AAAAE05D0AF  Unknown               Unknown  Unknown
libmpi.so.1        00002AAAAE1634A9  Unknown               Unknown  Unknown
libmpi.so.1        00002AAAAE162E9E  Unknown               Unknown  Unknown
libmpi.so.1        00002AAAAE15862D  Unknown               Unknown  Unknown
libmpi.so.1        00002AAAAE073A06  Unknown               Unknown  Unknown
libmpi_mpifh.so.2  00002AAAADDC7BD6  Unknown               Unknown  Unknown
abinit             0000000001DF0D2A  Unknown               Unknown  Unknown
abinit             0000000000423D79  Unknown               Unknown  Unknown
abinit             000000000040C467  Unknown               Unknown  Unknown
abinit             0000000000409F96  Unknown               Unknown  Unknown
libc.so.6          0000003D9B21ED5D  Unknown               Unknown  Unknown
abinit             0000000000409E89  Unknown               Unknown  Unknown
forrtl: error (78): process killed (SIGTERM)
Image              PC                Routine            Line        Source             
libirc.so          00002AAAAFBDC229  Unknown               Unknown  Unknown
libirc.so          00002AAAAFBDABA0  Unknown               Unknown  Unknown
libifcore.so.5     00002AAAAE8A333F  Unknown               Unknown  Unknown
libifcore.so.5     00002AAAAE80AD7F  Unknown               Unknown  Unknown
libifcore.so.5     00002AAAAE81BF4E  Unknown               Unknown  Unknown
libpthread.so.0    0000003B2300F710  Unknown               Unknown  Unknown
libpsm_infinipath  00002AAAB0F003B7  Unknown               Unknown  Unknown
libpsm_infinipath  00002AAAB0F002B5  Unknown               Unknown  Unknown
libpsm_infinipath  00002AAAB0EFE07D  Unknown               Unknown  Unknown
libmpi.so.1        00002AAAAE1C64B6  Unknown               Unknown  Unknown
libopen-pal.so.6   00002AAAB147042B  Unknown               Unknown  Unknown
libmpi.so.1        00002AAAAE05D0AF  Unknown               Unknown  Unknown
libmpi.so.1        00002AAAAE1634A9  Unknown               Unknown  Unknown
libmpi.so.1        00002AAAAE162E9E  Unknown               Unknown  Unknown
libmpi.so.1        00002AAAAE15862D  Unknown               Unknown  Unknown
libmpi.so.1        00002AAAAE073A06  Unknown               Unknown  Unknown
libmpi_mpifh.so.2  00002AAAADDC7BD6  Unknown               Unknown  Unknown
abinit             0000000001DF0D2A  Unknown               Unknown  Unknown
abinit             0000000000423D79  Unknown               Unknown  Unknown
abinit             000000000040C467  Unknown               Unknown  Unknown
abinit             0000000000409F96  Unknown               Unknown  Unknown
libc.so.6          0000003B22C1ED5D  Unknown               Unknown  Unknown
abinit             0000000000409E89  Unknown               Unknown  Unknown
forrtl: error (78): process killed (SIGTERM)
Image              PC                Routine            Line        Source             
libirc.so          00002AAAAFBDC229  Unknown               Unknown  Unknown
libirc.so          00002AAAAFBDABA0  Unknown               Unknown  Unknown
libifcore.so.5     00002AAAAE8A333F  Unknown               Unknown  Unknown
libifcore.so.5     00002AAAAE80AD7F  Unknown               Unknown  Unknown
libifcore.so.5     00002AAAAE81BF4E  Unknown               Unknown  Unknown
libpthread.so.0    0000003B2300F710  Unknown               Unknown  Unknown
libopen-pal.so.6   00002AAAB1470456  Unknown               Unknown  Unknown
libmpi.so.1        00002AAAAE05D0AF  Unknown               Unknown  Unknown
libmpi.so.1        00002AAAAE1634A9  Unknown               Unknown  Unknown
libmpi.so.1        00002AAAAE162E9E  Unknown               Unknown  Unknown
libmpi.so.1        00002AAAAE15862D  Unknown               Unknown  Unknown
libmpi.so.1        00002AAAAE073A06  Unknown               Unknown  Unknown
libmpi_mpifh.so.2  00002AAAADDC7BD6  Unknown               Unknown  Unknown
abinit             0000000001DF0D2A  Unknown               Unknown  Unknown
abinit             0000000000423D79  Unknown               Unknown  Unknown
abinit             000000000040C467  Unknown               Unknown  Unknown
abinit             0000000000409F96  Unknown               Unknown  Unknown
libc.so.6          0000003B22C1ED5D  Unknown               Unknown  Unknown
abinit             0000000000409E89  Unknown               Unknown  Unknown
forrtl: error (78): process killed (SIGTERM)
Image              PC                Routine            Line        Source             
libirc.so          00002AAAAFBDC229  Unknown               Unknown  Unknown
libirc.so          00002AAAAFBDABA0  Unknown               Unknown  Unknown
libifcore.so.5     00002AAAAE8A333F  Unknown               Unknown  Unknown
libifcore.so.5     00002AAAAE80AD7F  Unknown               Unknown  Unknown
libifcore.so.5     00002AAAAE81BF4E  Unknown               Unknown  Unknown
libpthread.so.0    0000003E6760F710  Unknown               Unknown  Unknown
libpsm_infinipath  00002AAAB0EFE06C  Unknown               Unknown  Unknown
libmpi.so.1        00002AAAAE1C64B6  Unknown               Unknown  Unknown
libopen-pal.so.6   00002AAAB147042B  Unknown               Unknown  Unknown
libmpi.so.1        00002AAAAE05D0AF  Unknown               Unknown  Unknown
libmpi.so.1        00002AAAAE1634A9  Unknown               Unknown  Unknown
libmpi.so.1        00002AAAAE162E9E  Unknown               Unknown  Unknown
libmpi.so.1        00002AAAAE15862D  Unknown               Unknown  Unknown
libmpi.so.1        00002AAAAE073A06  Unknown               Unknown  Unknown
libmpi_mpifh.so.2  00002AAAADDC7BD6  Unknown               Unknown  Unknown
abinit             0000000001DF0D2A  Unknown               Unknown  Unknown
abinit             0000000000423D79  Unknown               Unknown  Unknown
abinit             000000000040C467  Unknown               Unknown  Unknown
abinit             0000000000409F96  Unknown               Unknown  Unknown
libc.so.6          0000003E6721ED5D  Unknown               Unknown  Unknown
abinit             0000000000409E89  Unknown               Unknown  Unknown
forrtl: error (78): process killed (SIGTERM)
Image              PC                Routine            Line        Source             
libirc.so          00002AAAAFBDC229  Unknown               Unknown  Unknown
libirc.so          00002AAAAFBDABA0  Unknown               Unknown  Unknown
libifcore.so.5     00002AAAAE8A333F  Unknown               Unknown  Unknown
libifcore.so.5     00002AAAAE80AD7F  Unknown               Unknown  Unknown
libifcore.so.5     00002AAAAE81BF4E  Unknown               Unknown  Unknown
libpthread.so.0    0000003E6760F710  Unknown               Unknown  Unknown
libpsm_infinipath  00002AAAB0EFE06C  Unknown               Unknown  Unknown
libmpi.so.1        00002AAAAE1C64B6  Unknown               Unknown  Unknown
libopen-pal.so.6   00002AAAB147042B  Unknown               Unknown  Unknown
libmpi.so.1        00002AAAAE05D0AF  Unknown               Unknown  Unknown
libmpi.so.1        00002AAAAE1634A9  Unknown               Unknown  Unknown
libmpi.so.1        00002AAAAE162E9E  Unknown               Unknown  Unknown
libmpi.so.1        00002AAAAE15862D  Unknown               Unknown  Unknown
libmpi.so.1        00002AAAAE073A06  Unknown               Unknown  Unknown
libmpi_mpifh.so.2  00002AAAADDC7BD6  Unknown               Unknown  Unknown
abinit             0000000001DF0D2A  Unknown               Unknown  Unknown
abinit             0000000000423D79  Unknown               Unknown  Unknown
abinit             000000000040C467  Unknown               Unknown  Unknown
abinit             0000000000409F96  Unknown               Unknown  Unknown
libc.so.6          0000003E6721ED5D  Unknown               Unknown  Unknown
abinit             0000000000409E89  Unknown               Unknown  Unknown
