
.Version 8.11.13 of ABINIT 
.(MPI version, prepared for a x86_64_linux_intel14.0 computer) 

.Copyright (C) 1998-2019 ABINIT group . 
 ABINIT comes with ABSOLUTELY NO WARRANTY.
 It is free software, and you are welcome to redistribute it
 under certain conditions (GNU General Public License,
 see ~abinit/COPYING or http://www.gnu.org/copyleft/gpl.txt).

 ABINIT is a project of the Universite Catholique de Louvain,
 Corning Inc. and other collaborators, see ~abinit/doc/developers/contributors.txt .
 Please read https://docs.abinit.org/theory/acknowledgments for suggested
 acknowledgments of the ABINIT effort.
 For more information, see https://www.abinit.org .

.Starting date : Fri  3 Jan 2020.
- ( at 12h32 )
  
- input  file    -> opt.in
- output file    -> opt.out
- root for input  files -> opti
- root for output files -> opto
 
 
 testkgrid : will perform the analysis of a series of k-grids.
  Note that kptopt=1 in this analysis, irrespective of its input value.
 
 Grid#    kptrlatt         shiftk         kptrlen       nkpt  iset
 
    1     1   1  -1      5.0000E-01      5.4695E+00       1     1
         -1   1  -1      5.0000E-01
         -1   1   1      5.0000E-01
 
    2     2   2  -2      5.0000E-01      1.0939E+01       2     1
         -2   2  -2      5.0000E-01
         -2   2   2      5.0000E-01
 
    3     3   3  -3      5.0000E-01      1.6409E+01       6     1
         -3   3  -3      5.0000E-01
         -3   3   3      5.0000E-01
 
    4     4   4  -4      5.0000E-01      2.1878E+01      10     1
         -4   4  -4      5.0000E-01
         -4   4   4      5.0000E-01
 
    5     5   5  -5      5.0000E-01      2.7348E+01      19     1
         -5   5  -5      5.0000E-01
         -5   5   5      5.0000E-01
 
    6     6   6  -6      5.0000E-01      3.2817E+01      28     1
         -6   6  -6      5.0000E-01
         -6   6   6      5.0000E-01
 
    7     7   7  -7      5.0000E-01      3.8287E+01      44     1
         -7   7  -7      5.0000E-01
         -7   7   7      5.0000E-01
 
    8     8   8  -8      5.0000E-01      4.3756E+01      60     1
         -8   8  -8      5.0000E-01
         -8   8   8      5.0000E-01
 
    9     9   9  -9      5.0000E-01      4.9226E+01      85     1
         -9   9  -9      5.0000E-01
         -9   9   9      5.0000E-01
 
   10    10  10 -10      5.0000E-01      5.4695E+01     110     1
        -10  10 -10      5.0000E-01
        -10  10  10      5.0000E-01
 
   11    11  11 -11      5.0000E-01      6.0165E+01     146     1
        -11  11 -11      5.0000E-01
        -11  11  11      5.0000E-01
 
   12     2   2  -2      5.0000E-01      1.0939E+01       2     2
         -2   2  -2      5.0000E-01
         -2   2   2      5.0000E-01
 
   13     4   4  -4      5.0000E-01      2.1878E+01      10     2
         -4   4  -4      5.0000E-01
         -4   4   4      5.0000E-01
 
   14     6   6  -6      5.0000E-01      3.2817E+01      28     2
         -6   6  -6      5.0000E-01
         -6   6   6      5.0000E-01
 
   15     8   8  -8      5.0000E-01      4.3756E+01      60     2
         -8   8  -8      5.0000E-01
         -8   8   8      5.0000E-01
 
   16    10  10 -10      5.0000E-01      5.4695E+01     110     2
        -10  10 -10      5.0000E-01
        -10  10  10      5.0000E-01
 
   17    12  12 -12      5.0000E-01      6.5635E+01     182     2
        -12  12 -12      5.0000E-01
        -12  12  12      5.0000E-01
 
   18    -3   1   1      5.0000E-01      9.4735E+00       3     3
          1   1   1      5.0000E-01
          1   1  -3      5.0000E-01
 
   19    -6   2   2      5.0000E-01      1.8947E+01       8     3
          2   2   2      5.0000E-01
          2   2  -6      5.0000E-01
 
   20    -9   3   3      5.0000E-01      2.8421E+01      22     3
          3   3   3      5.0000E-01
          3   3  -9      5.0000E-01
 
   21   -12   4   4      5.0000E-01      3.7894E+01      40     3
          4   4   4      5.0000E-01
          4   4 -12      5.0000E-01
 
   22   -15   5   5      5.0000E-01      4.7368E+01      73     3
          5   5   5      5.0000E-01
          5   5 -15      5.0000E-01
 
   23   -18   6   6      5.0000E-01      5.6841E+01     112     3
          6   6   6      5.0000E-01
          6   6 -18      5.0000E-01
 
   24   -21   7   7      5.0000E-01      6.6315E+01     172     3
          7   7   7      5.0000E-01
          7   7 -21      5.0000E-01
 
   25    -6   2   2      5.0000E-01      1.8947E+01       8     4
          2   2   2      5.0000E-01
          2   2  -6      5.0000E-01
 
   26   -12   4   4      5.0000E-01      3.7894E+01      40     4
          4   4   4      5.0000E-01
          4   4 -12      5.0000E-01
 
   27   -18   6   6      5.0000E-01      5.6841E+01     112     4
          6   6   6      5.0000E-01
          6   6 -18      5.0000E-01
 
   28   -24   8   8      5.0000E-01      7.5788E+01     240     4
          8   8   8      5.0000E-01
          8   8 -24      5.0000E-01
 
   29    -2   2   0      0.0000E+00      7.7351E+00       3     5
          0   2   0      0.0000E+00
          0   2  -2      0.0000E+00
 
   30    -4   4   0      0.0000E+00      1.5470E+01       8     5
          0   4   0      0.0000E+00
          0   4  -4      0.0000E+00
 
   31    -6   6   0      0.0000E+00      2.3205E+01      16     5
          0   6   0      0.0000E+00
          0   6  -6      0.0000E+00
 
   32    -8   8   0      0.0000E+00      3.0940E+01      29     5
          0   8   0      0.0000E+00
          0   8  -8      0.0000E+00
 
   33   -10  10   0      0.0000E+00      3.8676E+01      47     5
          0  10   0      0.0000E+00
          0  10 -10      0.0000E+00
 
   34   -12  12   0      0.0000E+00      4.6411E+01      72     5
          0  12   0      0.0000E+00
          0  12 -12      0.0000E+00
 
   35   -14  14   0      0.0000E+00      5.4146E+01     104     5
          0  14   0      0.0000E+00
          0  14 -14      0.0000E+00
 
   36   -16  16   0      0.0000E+00      6.1881E+01     145     5
          0  16   0      0.0000E+00
          0  16 -16      0.0000E+00
 
   37    -4   4   0      0.0000E+00      1.5470E+01       8     6
          0   4   0      0.0000E+00
          0   4  -4      0.0000E+00
 
   38    -8   8   0      0.0000E+00      3.0940E+01      29     6
          0   8   0      0.0000E+00
          0   8  -8      0.0000E+00
 
   39   -12  12   0      0.0000E+00      4.6411E+01      72     6
          0  12   0      0.0000E+00
          0  12 -12      0.0000E+00
 
   40   -16  16   0      0.0000E+00      6.1881E+01     145     6
          0  16   0      0.0000E+00
          0  16 -16      0.0000E+00
 
   41    -1   1   0      0.0000E+00      3.8676E+00       1     7
          0   1   0      0.0000E+00
          0   1  -1      0.0000E+00
 
   42    -3   3   0      0.0000E+00      1.1603E+01       4     7
          0   3   0      0.0000E+00
          0   3  -3      0.0000E+00
 
   43    -5   5   0      0.0000E+00      1.9338E+01      10     7
          0   5   0      0.0000E+00
          0   5  -5      0.0000E+00
 
   44    -7   7   0      0.0000E+00      2.7073E+01      20     7
          0   7   0      0.0000E+00
          0   7  -7      0.0000E+00
 
   45    -9   9   0      0.0000E+00      3.4808E+01      35     7
          0   9   0      0.0000E+00
          0   9  -9      0.0000E+00
 
   46   -11  11   0      0.0000E+00      4.2543E+01      56     7
          0  11   0      0.0000E+00
          0  11 -11      0.0000E+00
 
   47   -13  13   0      0.0000E+00      5.0278E+01      84     7
          0  13   0      0.0000E+00
          0  13 -13      0.0000E+00
 
   48   -15  15   0      0.0000E+00      5.8013E+01     120     7
          0  15   0      0.0000E+00
          0  15 -15      0.0000E+00
 
   49   -17  17   0      0.0000E+00      6.5748E+01     165     7
          0  17   0      0.0000E+00
          0  17 -17      0.0000E+00
 
   50    -2   2   0      0.0000E+00      7.7351E+00       3     8
          0   2   0      0.0000E+00
          0   2  -2      0.0000E+00
 
   51    -6   6   0      0.0000E+00      2.3205E+01      16     8
          0   6   0      0.0000E+00
          0   6  -6      0.0000E+00
 
   52   -10  10   0      0.0000E+00      3.8676E+01      47     8
          0  10   0      0.0000E+00
          0  10 -10      0.0000E+00
 
   53   -14  14   0      0.0000E+00      5.4146E+01     104     8
          0  14   0      0.0000E+00
          0  14 -14      0.0000E+00
 
   54   -18  18   0      0.0000E+00      6.9616E+01     195     8
          0  18   0      0.0000E+00
          0  18 -18      0.0000E+00
 
 
 List of best grids, ordered by nkpt.
  (stop at a value of kptrlen 20% larger than the target value).
  (the merit factor will tend to one or two in 3 dimensions)
  (and to one, two or four in 2 dimensions)
 
    nkpt   kptrlen    grid#  merit_factor
     1    5.4695E+00     1      0.0589
     2    1.0939E+01     2      0.2357
     4    1.1603E+01    42      0.1406
     6    1.6409E+01     3      0.2652
     8    1.8947E+01    19      0.3062
    10    2.1878E+01     4      0.3771
    16    2.3205E+01    31      0.2812
    19    2.7348E+01     5      0.3877
    22    2.8421E+01    20      0.3758
    28    3.2817E+01     6      0.4546
    35    3.4808E+01    45      0.4339
    40    3.7894E+01    21      0.4899
 
 For target kptrlen=    3.0000E+01, the selected grid is number     6,
     giving kptrlen=    3.2817E+01 with nkpt=    28
 
 testkgrid : stop after analysis of a series of k-grids.
  For usual production runs, set prtkpt back to 0 (the default).
