--------------------------------------------------------------------------
[[902,1],0]: A high-performance Open MPI point-to-point messaging module
was unable to find any relevant network interfaces:

Module: OpenFabrics (openib)
  Host: abipy

Another transport will be used instead, although this may result in
lower performance.
--------------------------------------------------------------------------
  ABINIT 8.10.3
  
  Give name for formatted input file: 
tbase4_2.in
  Give name for formatted output file:
tbase4_2.out
  Give root name for generic input files:
tbase4_2i
  Give root name for generic output files:
tbase4_2o
  Give root name for generic temporary files:
tbase4_2

.Version 8.10.3 of ABINIT 
.(MPI version, prepared for a x86_64_linux_gnu5.4 computer) 

.Copyright (C) 1998-2018 ABINIT group . 
 ABINIT comes with ABSOLUTELY NO WARRANTY.
 It is free software, and you are welcome to redistribute it
 under certain conditions (GNU General Public License,
 see ~abinit/COPYING or http://www.gnu.org/copyleft/gpl.txt).

 ABINIT is a project of the Universite Catholique de Louvain,
 Corning Inc. and other collaborators, see ~abinit/doc/developers/contributors.txt .
 Please read https://docs.abinit.org/theory/acknowledgments for suggested
 acknowledgments of the ABINIT effort.
 For more information, see https://www.abinit.org .

.Starting date : Fri 18 Oct 2019.
- ( at 13h52 )
  

 ++++++++++++++++++++++++++++++++++++++++++++++++++++++++++++++++++++++++++++++

 === Build Information === 
  Version       : 8.10.3
  Build target  : x86_64_linux_gnu5.4
  Build date    : 20191016

 === Compiler Suite === 
  C compiler       : gnu5.4
  C++ compiler     : gnu5.4
  Fortran compiler : gnu5.4
  CFLAGS           :  -g -O2 -mtune=native -march=native
  CXXFLAGS         :  -g -O2 -mtune=native -march=native
  FCFLAGS          :  -g -ffree-line-length-none  -fopenmp
  FC_LDFLAGS       : 

 === Optimizations === 
  Debug level        : basic
  Optimization level : standard
  Architecture       : unknown_unknown

 === Multicore === 
  Parallel build : yes
  Parallel I/O   : yes
  openMP support : yes
  GPU support    : no

 === Connectors / Fallbacks === 
  Connectors on : yes
  Fallbacks on  : yes
  DFT flavor    : none
  FFT flavor    : fftw3
  LINALG flavor : atlas
  MATH flavor   : none
  TIMER flavor  : abinit
  TRIO flavor   : netcdf

 === Experimental features === 
  Bindings            : @enable_bindings@
  Exports             : no
  GW double-precision : no

 ++++++++++++++++++++++++++++++++++++++++++++++++++++++++++++++++++++++++++++++


 ++++++++++++++++++++++++++++++++++++++++++++++++++++++++++++++++++++++++++++++
 Default optimizations:
   -O2 -mtune=native -march=native


 Optimizations for 43_ptgroups:
   -O0


 ++++++++++++++++++++++++++++++++++++++++++++++++++++++++++++++++++++++++++++++


 ++++++++++++++++++++++++++++++++++++++++++++++++++++++++++++++++++++++++++++++
 CPP options activated during the build:

                    CC_GNU                   CXX_GNU                    FC_GNU
 
 HAVE_FC_ALLOCATABLE_DT...             HAVE_FC_ASYNC         HAVE_FC_BACKTRACE
 
  HAVE_FC_COMMAND_ARGUMENT      HAVE_FC_COMMAND_LINE        HAVE_FC_CONTIGUOUS
 
           HAVE_FC_CPUTIME              HAVE_FC_EXIT             HAVE_FC_FLUSH
 
             HAVE_FC_GAMMA            HAVE_FC_GETENV   HAVE_FC_IEEE_EXCEPTIONS
 
          HAVE_FC_INT_QUAD             HAVE_FC_IOMSG     HAVE_FC_ISO_C_BINDING
 
  HAVE_FC_ISO_FORTRAN_2008        HAVE_FC_LONG_LINES        HAVE_FC_MOVE_ALLOC
 
           HAVE_FC_PRIVATE         HAVE_FC_PROTECTED         HAVE_FC_STREAM_IO
 
            HAVE_FC_SYSTEM                  HAVE_FFT            HAVE_FFT_FFTW3
 
              HAVE_FFT_MPI           HAVE_FFT_SERIAL          HAVE_FORTRAN2003
 
        HAVE_LIBPAW_ABINIT      HAVE_LIBTETRA_ABINIT               HAVE_LINALG
 
        HAVE_LINALG_SERIAL                  HAVE_MPI                 HAVE_MPI2
 
       HAVE_MPI_IALLREDUCE        HAVE_MPI_IALLTOALL       HAVE_MPI_IALLTOALLV
 
        HAVE_MPI_INTEGER16               HAVE_MPI_IO HAVE_MPI_TYPE_CREATE_S...
 
               HAVE_NETCDF           HAVE_NETCDF_MPI         HAVE_OMP_COLLAPSE
 
               HAVE_OPENMP             HAVE_OS_LINUX         HAVE_TIMER_ABINIT
 
              USE_MACROAVE                                                      
 ++++++++++++++++++++++++++++++++++++++++++++++++++++++++++++++++++++++++++++++

- input  file    -> tbase4_2.in
- output file    -> tbase4_2.out
- root for input  files -> tbase4_2i
- root for output files -> tbase4_2o


--- !WARNING
src_file: m_nctk.F90
src_line: 572
message: |
    netcdf lib does not support MPI-IO and: NetCDF: Parallel operation on file opened for non-parallel access
...

  Asked to delete not existent file: __TMP_FILE__

--- !WARNING
src_file: m_nctk.F90
src_line: 592
message: |
    The netcdf library does not support parallel IO, see message above
    Abinit won't be able to produce files in parallel e.g. when paral_kgb==1 is used.
    Action: install a netcdf4+HDF5 library with MPI-IO support.
...

-instrng: 85 lines of input have been read from file tbase4_2.in


 Please give name of formatted atomic psp file
 iofn2 : for atom type 1, psp file is ../../../../../Psps_for_tests/13al.981214.fhi
  read the values zionpsp=  3.0 , pspcod=   6 , lmax=   2

 inpspheads: deduce mpsang = 3, n1xccc = 0.
 invars1 : treat image number: 1

 symlatt : the Bravais lattice is cF (face-centered cubic)
  xred   is defined in input file
 ingeo: takes atomic coordinates from input array xred

 symlatt : the Bravais lattice is cF (face-centered cubic)

 symlatt : the Bravais lattice is cF (face-centered cubic)
 symspgr : spgroup= 225  Fm -3 m   (=Oh^5)
 symspgr : optical characteristics = isotropic
 ingeo: angdeg(1:3)=   60.00000000   60.00000000   60.00000000
 invars1 : treat image number: 1

 symlatt : the Bravais lattice is cF (face-centered cubic)
  xred   is defined in input file
 ingeo: takes atomic coordinates from input array xred

 symlatt : the Bravais lattice is cF (face-centered cubic)

 symlatt : the Bravais lattice is cF (face-centered cubic)
 symspgr : spgroup= 225  Fm -3 m   (=Oh^5)
 symspgr : optical characteristics = isotropic
 ingeo: angdeg(1:3)=   60.00000000   60.00000000   60.00000000
 invars1 : treat image number: 1

 symlatt : the Bravais lattice is cF (face-centered cubic)
  xred   is defined in input file
 ingeo: takes atomic coordinates from input array xred

 symlatt : the Bravais lattice is cF (face-centered cubic)

 symlatt : the Bravais lattice is cF (face-centered cubic)
 symspgr : spgroup= 225  Fm -3 m   (=Oh^5)
 symspgr : optical characteristics = isotropic
 ingeo: angdeg(1:3)=   60.00000000   60.00000000   60.00000000
 invars1 : treat image number: 1

 symlatt : the Bravais lattice is cF (face-centered cubic)
  xred   is defined in input file
 ingeo: takes atomic coordinates from input array xred

 symlatt : the Bravais lattice is cF (face-centered cubic)

 symlatt : the Bravais lattice is cF (face-centered cubic)
 symspgr : spgroup= 225  Fm -3 m   (=Oh^5)
 symspgr : optical characteristics = isotropic
 ingeo: angdeg(1:3)=   60.00000000   60.00000000   60.00000000
 invars2: take the default value of fband=  5.00000000E-01
 chkneu : initialized the occupation numbers for occopt=    4, spin-unpolarized or antiferromagnetic case :
  2.00  1.00  0.00
 invars2: take the default value of fband=  5.00000000E-01
 chkneu : initialized the occupation numbers for occopt=    4, spin-unpolarized or antiferromagnetic case :
  2.00  1.00  0.00
 invars2: take the default value of fband=  5.00000000E-01
 chkneu : initialized the occupation numbers for occopt=    4, spin-unpolarized or antiferromagnetic case :
  2.00  1.00  0.00
 invars2: take the default value of fband=  5.00000000E-01
 chkneu : initialized the occupation numbers for occopt=    4, spin-unpolarized or antiferromagnetic case :
  2.00  1.00  0.00
npfft, npband, npspinor and npkpt:     1    1    1    2
mpi_setup: mkmem  undefined in the input file.Use default mkmem  = nkpt
 mpi_setup: With nkpt_me=1 and mkmem  = 2, ground state wf handled in core.
 Resetting mkmem  to nkpt_me to save memory space.
mpi_setup: mkqmem undefined in the input file.Use default mkqmem = nkpt
 mpi_setup: With nkpt_me=1 and mkqmem = 2, ground state wf handled in core.
 Resetting mkqmem to nkpt_me to save memory space.
mpi_setup: mk1mem undefined in the input file.Use default mk1mem = nkpt
 mpi_setup: With nkpt_me=1 and mk1mem = 2, ground state wf handled in core.
 Resetting mk1mem to nkpt_me to save memory space.
 For input ecut=  6.615000E+00 best grid ngfft=      15      15      15
       max ecut=  8.458196E+00

 ==== FFT mesh ====
  FFT mesh divisions ........................    15   15   15
  Augmented FFT divisions ...................    15   15   15
  FFT algorithm .............................   312
  FFT cache size ............................    16
 getmpw: optimal value of mpw= 90
npfft, npband, npspinor and npkpt:     1    1    1    2
mpi_setup: mkmem  undefined in the input file.Use default mkmem  = nkpt
 mpi_setup: With nkpt_me=5 and mkmem  = 10, ground state wf handled in core.
 Resetting mkmem  to nkpt_me to save memory space.
mpi_setup: mkqmem undefined in the input file.Use default mkqmem = nkpt
 mpi_setup: With nkpt_me=5 and mkqmem = 10, ground state wf handled in core.
 Resetting mkqmem to nkpt_me to save memory space.
mpi_setup: mk1mem undefined in the input file.Use default mk1mem = nkpt
 mpi_setup: With nkpt_me=5 and mk1mem = 10, ground state wf handled in core.
 Resetting mk1mem to nkpt_me to save memory space.
 For input ecut=  6.615000E+00 best grid ngfft=      15      15      15
       max ecut=  8.458196E+00

 ==== FFT mesh ====
  FFT mesh divisions ........................    15   15   15
  Augmented FFT divisions ...................    15   15   15
  FFT algorithm .............................   312
  FFT cache size ............................    16
 getmpw: optimal value of mpw= 92
npfft, npband, npspinor and npkpt:     1    1    1    2
mpi_setup: mkmem  undefined in the input file.Use default mkmem  = nkpt
 mpi_setup: With nkpt_me=14 and mkmem  = 28, ground state wf handled in core.
 Resetting mkmem  to nkpt_me to save memory space.
mpi_setup: mkqmem undefined in the input file.Use default mkqmem = nkpt
 mpi_setup: With nkpt_me=14 and mkqmem = 28, ground state wf handled in core.
 Resetting mkqmem to nkpt_me to save memory space.
mpi_setup: mk1mem undefined in the input file.Use default mk1mem = nkpt
 mpi_setup: With nkpt_me=14 and mk1mem = 28, ground state wf handled in core.
 Resetting mk1mem to nkpt_me to save memory space.
 For input ecut=  6.615000E+00 best grid ngfft=      15      15      15
       max ecut=  8.458196E+00

 ==== FFT mesh ====
  FFT mesh divisions ........................    15   15   15
  Augmented FFT divisions ...................    15   15   15
  FFT algorithm .............................   312
  FFT cache size ............................    16
 getmpw: optimal value of mpw= 94
npfft, npband, npspinor and npkpt:     1    1    1    2
mpi_setup: mkmem  undefined in the input file.Use default mkmem  = nkpt
 mpi_setup: With nkpt_me=30 and mkmem  = 60, ground state wf handled in core.
 Resetting mkmem  to nkpt_me to save memory space.
mpi_setup: mkqmem undefined in the input file.Use default mkqmem = nkpt
 mpi_setup: With nkpt_me=30 and mkqmem = 60, ground state wf handled in core.
 Resetting mkqmem to nkpt_me to save memory space.
mpi_setup: mk1mem undefined in the input file.Use default mk1mem = nkpt
 mpi_setup: With nkpt_me=30 and mk1mem = 60, ground state wf handled in core.
 Resetting mk1mem to nkpt_me to save memory space.
 For input ecut=  6.615000E+00 best grid ngfft=      15      15      15
       max ecut=  8.458196E+00

 ==== FFT mesh ====
  FFT mesh divisions ........................    15   15   15
  Augmented FFT divisions ...................    15   15   15
  FFT algorithm .............................   312
  FFT cache size ............................    16
 getmpw: optimal value of mpw= 95

 DATASET    1 : space group Fm -3 m (#225); Bravais cF (face-center cubic)

 getdim_nloc : deduce lmnmax  =   9, lnmax  =   3,
                      lmnmaxso=   9, lnmaxso=   3.
memory : analysis of memory needs
================================================================================
 Values of the parameters that define the memory need for DATASET  1.
     intxc =       0    ionmov =       2      iscf =       7    lmnmax =       3
     lnmax =       3     mgfft =      15  mpssoang =       3    mqgrid =    3001
     natom =       1  nloc_mem =       1    nspden =       1   nspinor =       1
    nsppol =       1      nsym =      48    n1xccc =       0    ntypat =       1
    occopt =       4   xclevel =       1
-    mband =           3        mffmem =           1         mkmem =           1
       mpw =          90          nfft =        3375          nkpt =           2
================================================================================
P This job should need less than                       2.125 Mbytes of memory.
  Rough estimation (10% accuracy) of disk space for files :
_ WF disk file :      0.010 Mbytes ; DEN or POT disk file :      0.028 Mbytes.
================================================================================

 Biggest array : f_fftgr(disk), with      0.4140 MBytes.
 memana : allocated an array of      0.414 Mbytes, for testing purposes.
 memana: allocated       2.125Mbytes, for testing purposes. 
 The job will continue.

 DATASET    2 : space group Fm -3 m (#225); Bravais cF (face-center cubic)

 getdim_nloc : deduce lmnmax  =   9, lnmax  =   3,
                      lmnmaxso=   9, lnmaxso=   3.
memory : analysis of memory needs
================================================================================
 Values of the parameters that define the memory need for DATASET  2.
     intxc =       0    ionmov =       2      iscf =       7    lmnmax =       3
     lnmax =       3     mgfft =      15  mpssoang =       3    mqgrid =    3001
     natom =       1  nloc_mem =       1    nspden =       1   nspinor =       1
    nsppol =       1      nsym =      48    n1xccc =       0    ntypat =       1
    occopt =       4   xclevel =       1
-    mband =           3        mffmem =           1         mkmem =           5
       mpw =          92          nfft =        3375          nkpt =          10
================================================================================
P This job should need less than                       2.149 Mbytes of memory.
  Rough estimation (10% accuracy) of disk space for files :
_ WF disk file :      0.044 Mbytes ; DEN or POT disk file :      0.028 Mbytes.
================================================================================

 Biggest array : f_fftgr(disk), with      0.4140 MBytes.
 memana : allocated an array of      0.414 Mbytes, for testing purposes.
 memana: allocated       2.149Mbytes, for testing purposes. 
 The job will continue.

 DATASET    3 : space group Fm -3 m (#225); Bravais cF (face-center cubic)

 getdim_nloc : deduce lmnmax  =   9, lnmax  =   3,
                      lmnmaxso=   9, lnmaxso=   3.
memory : analysis of memory needs
================================================================================
 Values of the parameters that define the memory need for DATASET  3.
     intxc =       0    ionmov =       2      iscf =       7    lmnmax =       3
     lnmax =       3     mgfft =      15  mpssoang =       3    mqgrid =    3001
     natom =       1  nloc_mem =       1    nspden =       1   nspinor =       1
    nsppol =       1      nsym =      48    n1xccc =       0    ntypat =       1
    occopt =       4   xclevel =       1
-    mband =           3        mffmem =           1         mkmem =          14
       mpw =          94          nfft =        3375          nkpt =          28
================================================================================
P This job should need less than                       2.206 Mbytes of memory.
  Rough estimation (10% accuracy) of disk space for files :
_ WF disk file :      0.122 Mbytes ; DEN or POT disk file :      0.028 Mbytes.
================================================================================

 Biggest array : f_fftgr(disk), with      0.4140 MBytes.
 memana : allocated an array of      0.414 Mbytes, for testing purposes.
 memana: allocated       2.206Mbytes, for testing purposes. 
 The job will continue.

 DATASET    4 : space group Fm -3 m (#225); Bravais cF (face-center cubic)

 getdim_nloc : deduce lmnmax  =   9, lnmax  =   3,
                      lmnmaxso=   9, lnmaxso=   3.
memory : analysis of memory needs
================================================================================
 Values of the parameters that define the memory need for DATASET  4.
     intxc =       0    ionmov =       2      iscf =       7    lmnmax =       3
     lnmax =       3     mgfft =      15  mpssoang =       3    mqgrid =    3001
     natom =       1  nloc_mem =       1    nspden =       1   nspinor =       1
    nsppol =       1      nsym =      48    n1xccc =       0    ntypat =       1
    occopt =       4   xclevel =       1
-    mband =           3        mffmem =           1         mkmem =          30
       mpw =          95          nfft =        3375          nkpt =          60
================================================================================
P This job should need less than                       2.306 Mbytes of memory.
  Rough estimation (10% accuracy) of disk space for files :
_ WF disk file :      0.263 Mbytes ; DEN or POT disk file :      0.028 Mbytes.
================================================================================

 Biggest array : f_fftgr(disk), with      0.4140 MBytes.
 memana : allocated an array of      0.414 Mbytes, for testing purposes.
 memana: allocated       2.306Mbytes, for testing purposes. 
 The job will continue.
--------------------------------------------------------------------------------
------------- Echo of variables that govern the present computation ------------
--------------------------------------------------------------------------------
-
- outvars: echo of selected default values                                      
-   iomode0 =  0 , fftalg0 =312 , wfoptalg0 =  0
-
- outvars: echo of global parameters not present in the input file              
-  max_nthreads =    2
-
 -outvars: echo values of preprocessed input variables --------
 
 These variables are accessible in NetCDF format (tbase4_2o_OUT.nc)

            acell      7.6000000000E+00  7.6000000000E+00  7.6000000000E+00 Bohr
              amu      2.69815390E+01
          dilatmx      1.05000000E+00
             ecut      6.00000000E+00 Hartree
           ecutsm      5.00000000E-01 Hartree
-          fftalg         312
           getwfk          -1
           ionmov           2
           jdtset        1    2    3    4
              kpt1    -2.50000000E-01  5.00000000E-01  0.00000000E+00
                      -2.50000000E-01  0.00000000E+00  0.00000000E+00
              kpt2    -1.25000000E-01 -2.50000000E-01  0.00000000E+00
                      -1.25000000E-01  5.00000000E-01  0.00000000E+00
                      -2.50000000E-01 -3.75000000E-01  0.00000000E+00
                      -1.25000000E-01 -3.75000000E-01  1.25000000E-01
                      -1.25000000E-01  2.50000000E-01  0.00000000E+00
                      -2.50000000E-01  3.75000000E-01  0.00000000E+00
                      -3.75000000E-01  5.00000000E-01  0.00000000E+00
                      -2.50000000E-01  5.00000000E-01  1.25000000E-01
                      -1.25000000E-01  0.00000000E+00  0.00000000E+00
                      -3.75000000E-01  0.00000000E+00  0.00000000E+00
              kpt3    -8.33333333E-02 -1.66666667E-01  0.00000000E+00
                      -8.33333333E-02 -3.33333333E-01  0.00000000E+00
                      -1.66666667E-01 -2.50000000E-01  0.00000000E+00
                      -8.33333333E-02 -2.50000000E-01  8.33333333E-02
                      -8.33333333E-02  5.00000000E-01  0.00000000E+00
                      -1.66666667E-01 -4.16666667E-01  0.00000000E+00
                      -8.33333333E-02 -4.16666667E-01  8.33333333E-02
                      -2.50000000E-01 -3.33333333E-01  0.00000000E+00
                      -1.66666667E-01 -3.33333333E-01  8.33333333E-02
                      -8.33333333E-02 -3.33333333E-01  1.66666667E-01
                      -8.33333333E-02  3.33333333E-01  0.00000000E+00
                      -1.66666667E-01  4.16666667E-01  0.00000000E+00
                      -2.50000000E-01  5.00000000E-01  0.00000000E+00
                      -1.66666667E-01  5.00000000E-01  8.33333333E-02
                      -3.33333333E-01 -4.16666667E-01  0.00000000E+00
                      -2.50000000E-01 -4.16666667E-01  8.33333333E-02
                      -1.66666667E-01 -4.16666667E-01  1.66666667E-01
                      -8.33333333E-02 -4.16666667E-01  2.50000000E-01
                      -8.33333333E-02  1.66666667E-01  0.00000000E+00
                      -1.66666667E-01  2.50000000E-01  0.00000000E+00
                      -2.50000000E-01  3.33333333E-01  0.00000000E+00
                      -3.33333333E-01  4.16666667E-01  0.00000000E+00
                      -4.16666667E-01  5.00000000E-01  0.00000000E+00
                      -3.33333333E-01  5.00000000E-01  8.33333333E-02
                      -2.50000000E-01  5.00000000E-01  1.66666667E-01
                      -8.33333333E-02  0.00000000E+00  0.00000000E+00
                      -2.50000000E-01  0.00000000E+00  0.00000000E+00
                      -4.16666667E-01  0.00000000E+00  0.00000000E+00
              kpt4    -6.25000000E-02 -1.25000000E-01  0.00000000E+00
                      -6.25000000E-02 -2.50000000E-01  0.00000000E+00
                      -1.25000000E-01 -1.87500000E-01  0.00000000E+00
                      -6.25000000E-02 -1.87500000E-01  6.25000000E-02
                      -6.25000000E-02 -3.75000000E-01  0.00000000E+00
                      -1.25000000E-01 -3.12500000E-01  0.00000000E+00
                      -6.25000000E-02 -3.12500000E-01  6.25000000E-02
                      -1.87500000E-01 -2.50000000E-01  0.00000000E+00
                      -1.25000000E-01 -2.50000000E-01  6.25000000E-02
                      -6.25000000E-02 -2.50000000E-01  1.25000000E-01
                      -6.25000000E-02  5.00000000E-01  0.00000000E+00
                      -1.25000000E-01 -4.37500000E-01  0.00000000E+00
                      -6.25000000E-02 -4.37500000E-01  6.25000000E-02
                      -1.87500000E-01 -3.75000000E-01  0.00000000E+00
                      -1.25000000E-01 -3.75000000E-01  6.25000000E-02
                      -6.25000000E-02 -3.75000000E-01  1.25000000E-01
                      -2.50000000E-01 -3.12500000E-01  0.00000000E+00
                      -1.87500000E-01 -3.12500000E-01  6.25000000E-02
                      -1.25000000E-01 -3.12500000E-01  1.25000000E-01
                      -6.25000000E-02 -3.12500000E-01  1.87500000E-01
                      -6.25000000E-02  3.75000000E-01  0.00000000E+00
                      -1.25000000E-01  4.37500000E-01  0.00000000E+00
                      -1.87500000E-01  5.00000000E-01  0.00000000E+00
                      -1.25000000E-01  5.00000000E-01  6.25000000E-02
                      -2.50000000E-01 -4.37500000E-01  0.00000000E+00
                      -1.87500000E-01 -4.37500000E-01  6.25000000E-02
                      -1.25000000E-01 -4.37500000E-01  1.25000000E-01
                      -6.25000000E-02 -4.37500000E-01  1.87500000E-01
                      -3.12500000E-01 -3.75000000E-01  0.00000000E+00
                      -2.50000000E-01 -3.75000000E-01  6.25000000E-02
                      -1.87500000E-01 -3.75000000E-01  1.25000000E-01
                      -1.25000000E-01 -3.75000000E-01  1.87500000E-01
                      -6.25000000E-02 -3.75000000E-01  2.50000000E-01
                      -6.25000000E-02  2.50000000E-01  0.00000000E+00
                      -1.25000000E-01  3.12500000E-01  0.00000000E+00
                      -1.87500000E-01  3.75000000E-01  0.00000000E+00
                      -2.50000000E-01  4.37500000E-01  0.00000000E+00
                      -3.12500000E-01  5.00000000E-01  0.00000000E+00
                      -2.50000000E-01  5.00000000E-01  6.25000000E-02
                      -1.87500000E-01  5.00000000E-01  1.25000000E-01
                      -3.75000000E-01 -4.37500000E-01  0.00000000E+00
                      -3.12500000E-01 -4.37500000E-01  6.25000000E-02
                      -2.50000000E-01 -4.37500000E-01  1.25000000E-01
                      -1.87500000E-01 -4.37500000E-01  1.87500000E-01
                      -1.25000000E-01 -4.37500000E-01  2.50000000E-01
                      -6.25000000E-02 -4.37500000E-01  3.12500000E-01
                      -6.25000000E-02  1.25000000E-01  0.00000000E+00
                      -1.25000000E-01  1.87500000E-01  0.00000000E+00
                      -1.87500000E-01  2.50000000E-01  0.00000000E+00
                      -2.50000000E-01  3.12500000E-01  0.00000000E+00
                       outvar_i_n : Printing only first  50 k-points.
         kptrlatt1       2   -2    2     -2    2    2     -2   -2    2
         kptrlatt2       4   -4    4     -4    4    4     -4   -4    4
         kptrlatt3       6   -6    6     -6    6    6     -6   -6    6
         kptrlatt4       8   -8    8     -8    8    8     -8   -8    8
          kptrlen1     1.52000000E+01
          kptrlen2     3.04000000E+01
          kptrlen3     4.56000000E+01
          kptrlen4     6.08000000E+01
P           mkmem1          1
P           mkmem2          5
P           mkmem3         14
P           mkmem4         30
            natom           1
            nband1          3
            nband2          3
            nband3          3
            nband4          3
           ndtset           4
            ngfft          15      15      15
             nkpt1          2
             nkpt2         10
             nkpt3         28
             nkpt4         60
            nstep          10
             nsym          48
            ntime          10
           ntypat           1
              occ1     2.000000  1.000000  0.000000
                       2.000000  1.000000  0.000000
              occ2     2.000000  1.000000  0.000000
                       2.000000  1.000000  0.000000
                       2.000000  1.000000  0.000000
                       2.000000  1.000000  0.000000
                       2.000000  1.000000  0.000000
                       2.000000  1.000000  0.000000
                       2.000000  1.000000  0.000000
                       2.000000  1.000000  0.000000
                       2.000000  1.000000  0.000000
                       2.000000  1.000000  0.000000
              occ3     2.000000  1.000000  0.000000
                       2.000000  1.000000  0.000000
                       2.000000  1.000000  0.000000
                       2.000000  1.000000  0.000000
                       2.000000  1.000000  0.000000
                       2.000000  1.000000  0.000000
                       2.000000  1.000000  0.000000
                       2.000000  1.000000  0.000000
                       2.000000  1.000000  0.000000
                       2.000000  1.000000  0.000000
                       2.000000  1.000000  0.000000
                       2.000000  1.000000  0.000000
                       2.000000  1.000000  0.000000
                       2.000000  1.000000  0.000000
                       2.000000  1.000000  0.000000
                       2.000000  1.000000  0.000000
                       2.000000  1.000000  0.000000
                       2.000000  1.000000  0.000000
                       2.000000  1.000000  0.000000
                       2.000000  1.000000  0.000000
                       2.000000  1.000000  0.000000
                       2.000000  1.000000  0.000000
                       2.000000  1.000000  0.000000
                       2.000000  1.000000  0.000000
                       2.000000  1.000000  0.000000
                       2.000000  1.000000  0.000000
                       2.000000  1.000000  0.000000
                       2.000000  1.000000  0.000000
              occ4     2.000000  1.000000  0.000000
                       2.000000  1.000000  0.000000
                       2.000000  1.000000  0.000000
                       2.000000  1.000000  0.000000
                       2.000000  1.000000  0.000000
                       2.000000  1.000000  0.000000
                       2.000000  1.000000  0.000000
                       2.000000  1.000000  0.000000
                       2.000000  1.000000  0.000000
                       2.000000  1.000000  0.000000
                       2.000000  1.000000  0.000000
                       2.000000  1.000000  0.000000
                       2.000000  1.000000  0.000000
                       2.000000  1.000000  0.000000
                       2.000000  1.000000  0.000000
                       2.000000  1.000000  0.000000
                       2.000000  1.000000  0.000000
                       2.000000  1.000000  0.000000
                       2.000000  1.000000  0.000000
                       2.000000  1.000000  0.000000
                       2.000000  1.000000  0.000000
                       2.000000  1.000000  0.000000
                       2.000000  1.000000  0.000000
                       2.000000  1.000000  0.000000
                       2.000000  1.000000  0.000000
                       2.000000  1.000000  0.000000
                       2.000000  1.000000  0.000000
                       2.000000  1.000000  0.000000
                       2.000000  1.000000  0.000000
                       2.000000  1.000000  0.000000
                       2.000000  1.000000  0.000000
                       2.000000  1.000000  0.000000
                       2.000000  1.000000  0.000000
                       2.000000  1.000000  0.000000
                       2.000000  1.000000  0.000000
                       2.000000  1.000000  0.000000
                       2.000000  1.000000  0.000000
                       2.000000  1.000000  0.000000
                       2.000000  1.000000  0.000000
                       2.000000  1.000000  0.000000
                       2.000000  1.000000  0.000000
                       2.000000  1.000000  0.000000
                       2.000000  1.000000  0.000000
                       2.000000  1.000000  0.000000
                       2.000000  1.000000  0.000000
                       2.000000  1.000000  0.000000
                       2.000000  1.000000  0.000000
                       2.000000  1.000000  0.000000
                       2.000000  1.000000  0.000000
                       2.000000  1.000000  0.000000
                       prtocc : prtvol=0, do not print more k-points.
           occopt           4
          optcell           1
            rprim      0.0000000000E+00  5.0000000000E-01  5.0000000000E-01
                       5.0000000000E-01  0.0000000000E+00  5.0000000000E-01
                       5.0000000000E-01  5.0000000000E-01  0.0000000000E+00
           shiftk      5.00000000E-01  5.00000000E-01  5.00000000E-01
          spgroup         225
           symrel      1  0  0   0  1  0   0  0  1      -1  0  0   0 -1  0   0  0 -1
                       0 -1  1   0 -1  0   1 -1  0       0  1 -1   0  1  0  -1  1  0
                      -1  0  0  -1  0  1  -1  1  0       1  0  0   1  0 -1   1 -1  0
                       0  1 -1   1  0 -1   0  0 -1       0 -1  1  -1  0  1   0  0  1
                      -1  0  0  -1  1  0  -1  0  1       1  0  0   1 -1  0   1  0 -1
                       0 -1  1   1 -1  0   0 -1  0       0  1 -1  -1  1  0   0  1  0
                       1  0  0   0  0  1   0  1  0      -1  0  0   0  0 -1   0 -1  0
                       0  1 -1   0  0 -1   1  0 -1       0 -1  1   0  0  1  -1  0  1
                      -1  0  1  -1  1  0  -1  0  0       1  0 -1   1 -1  0   1  0  0
                       0 -1  0   1 -1  0   0 -1  1       0  1  0  -1  1  0   0  1 -1
                       1  0 -1   0  0 -1   0  1 -1      -1  0  1   0  0  1   0 -1  1
                       0  1  0   0  0  1   1  0  0       0 -1  0   0  0 -1  -1  0  0
                       1  0 -1   0  1 -1   0  0 -1      -1  0  1   0 -1  1   0  0  1
                       0 -1  0   0 -1  1   1 -1  0       0  1  0   0  1 -1  -1  1  0
                      -1  0  1  -1  0  0  -1  1  0       1  0 -1   1  0  0   1 -1  0
                       0  1  0   1  0  0   0  0  1       0 -1  0  -1  0  0   0  0 -1
                       0  0 -1   0  1 -1   1  0 -1       0  0  1   0 -1  1  -1  0  1
                       1 -1  0   0 -1  1   0 -1  0      -1  1  0   0  1 -1   0  1  0
                       0  0  1   1  0  0   0  1  0       0  0 -1  -1  0  0   0 -1  0
                      -1  1  0  -1  0  0  -1  0  1       1 -1  0   1  0  0   1  0 -1
                       0  0  1   0  1  0   1  0  0       0  0 -1   0 -1  0  -1  0  0
                       1 -1  0   0 -1  0   0 -1  1      -1  1  0   0  1  0   0  1 -1
                       0  0 -1   1  0 -1   0  1 -1       0  0  1  -1  0  1   0 -1  1
                      -1  1  0  -1  0  1  -1  0  0       1 -1  0   1  0 -1   1  0  0
           toldfe      1.00000000E-06 Hartree
           tsmear      5.00000000E-02 Hartree
            typat      1
              wtk1       0.75000    0.25000
              wtk2       0.09375    0.09375    0.09375    0.18750    0.09375    0.09375
                         0.09375    0.18750    0.03125    0.03125
              wtk3       0.02778    0.02778    0.02778    0.05556    0.02778    0.02778
                         0.05556    0.02778    0.05556    0.05556    0.02778    0.02778
                         0.02778    0.05556    0.02778    0.05556    0.05556    0.05556
                         0.02778    0.02778    0.02778    0.02778    0.02778    0.05556
                         0.05556    0.00926    0.00926    0.00926
              wtk4       0.01172    0.01172    0.01172    0.02344    0.01172    0.01172
                         0.02344    0.01172    0.02344    0.02344    0.01172    0.01172
                         0.02344    0.01172    0.02344    0.02344    0.01172    0.02344
                         0.02344    0.02344    0.01172    0.01172    0.01172    0.02344
                         0.01172    0.02344    0.02344    0.02344    0.01172    0.02344
                         0.02344    0.02344    0.02344    0.01172    0.01172    0.01172
                         0.01172    0.01172    0.02344    0.02344    0.01172    0.02344
                         0.02344    0.02344    0.02344    0.02344    0.01172    0.01172
                         0.01172    0.01172
                       outvars : Printing only first  50 k-points.
            znucl       13.00000

================================================================================

 chkinp: Checking input parameters for consistency, jdtset=   1.

 chkinp: Checking input parameters for consistency, jdtset=   2.

 chkinp: Checking input parameters for consistency, jdtset=   3.

 chkinp: Checking input parameters for consistency, jdtset=   4.
 DATA TYPE INFORMATION: 
 REAL:      Data type name: REAL(DP) 
            Kind value:      8
            Precision:      15
            Smallest nonnegligible quantity relative to 1:  0.22204460E-15
            Smallest positive number:                       0.22250739-307
            Largest representable number:                   0.17976931+309
 INTEGER:   Data type name: INTEGER(default) 
            Kind value: 4
            Bit size:   32
            Largest representable number: 2147483647
 LOGICAL:   Data type name: LOGICAL 
            Kind value: 4
 CHARACTER: Data type name: CHARACTER             Kind value: 1

  ==== OpenMP parallelism is ON ====
- Max_threads:       2
- Num_threads:       2
- Num_procs:         2
- Dynamic:           F
- Nested:            F
 
  ==== Using MPI-2 specifications ==== 
  MPI-IO support is ON
  xmpi_tag_ub ................   2147483647
  xmpi_bsize_ch ..............            1
  xmpi_bsize_int .............            4
  xmpi_bsize_sp ..............            4
  xmpi_bsize_dp ..............            8
  xmpi_bsize_spc .............            8
  xmpi_bsize_dpc .............           16
  xmpio_bsize_frm ............            4
  xmpi_address_kind ..........            8
  xmpi_offset_kind ...........            8
  MPI_WTICK ..................    9.9999999999999995E-007

================================================================================
== DATASET  1 ==================================================================
-   nproc =    2


--- !COMMENT
src_file: m_xgScalapack.F90
src_line: 251
message: |
    xgScalapack in auto mode
...


 getdim_nloc : deduce lmnmax  =   9, lnmax  =   3,
                      lmnmaxso=   9, lnmaxso=   3.
 Exchange-correlation functional for the present dataset will be:
  LDA: new Teter (4/93) with spin-polarized option - ixc=1
 Citation for XC functional:
  S. Goedecker, M. Teter, J. Huetter, PRB 54, 1703 (1996)

 Unit cell volume ucvol=  1.0974400E+02 bohr^3
 Angles (23,13,12)=  6.00000000E+01  6.00000000E+01  6.00000000E+01 degrees

 getcut: wavevector=  0.0000  0.0000  0.0000  ngfft=  15  15  15
         ecut(hartree)=      6.615   => boxcut(ratio)=   2.26154

 getcut : COMMENT -
  Note that boxcut > 2.2 ; recall that boxcut=Gcut(box)/Gcut(sphere) = 2
  is sufficient for exact treatment of convolution.
  Such a large boxcut is a waste : you could raise ecut
  e.g. ecut=    8.458196 Hartrees makes boxcut=2

 kpgio: loop on k-points done in parallel
- pspini: atom type   1  psp file is ../../../../../Psps_for_tests/13al.981214.fhi
- pspatm: opening atomic psp file    ../../../../../Psps_for_tests/13al.981214.fhi
- Aluminum, fhi98PP : Hamann-type, LDA CA PerdewWang, l=2 local
- 13.00000   3.00000    981214                znucl, zion, pspdat
    6    7    2    2       493   0.00000      pspcod,pspxc,lmax,lloc,mmax,r2well

--- !WARNING
src_file: m_pspini.F90
src_line: 1088
message: |
    Pseudopotential file pspxc= 7,
    not equal to input ixc= 1.
    These parameters must agree to get the same xc 
    in ABINIT code as in psp construction.
    Action: check psp design or input file.
    Assume experienced user. Execution will continue.
...

  No XC core correction.
  1.024700          amesh (Hamman grid)
  pspatm : epsatm=    1.36305739
         --- l  ekb(1:nproj) -->
             0    1.768744
             1    0.900554
 pspatm: atomic psp has been read  and splines computed

   4.08917216E+00                                ecore*ucvol(ha*bohr**3)
 ==== Info on pseudopotentials ====
  Norm-conserving pseudopotentials
  Number of pseudopotentials ..    1
  Number of types of atoms   ..    1
  Scalar calculation (no spin-orbit term)
  Nonlocal part applied using Legendre polynomials
  Max number of non-local projectors over l and type   1
  Highest angular momentum +1 .......   3
  Max number of (l,n)   components ..   3
  Max number of (l,m,n) components ..   3

 Info on the Q-grid used for form factors in spline form: 
   Number of q-points for radial functions ffspl ..   3001
   Number of q-points for vlspl ...................   3001
   vloc is computed in Reciprocal Space
   model core charge treated in real-space

  XC functional for type 1 is 7
  Pseudo valence available: no

 wfconv:     3 bands initialized randomly with npw=    90, for ikpt=     1
_setup2: Arith. and geom. avg. npw (full set) are      89.750      89.749
 initro: for itypat=  1, take decay length=      1.2500,
 initro: indeed, coreel=     10.0000, nval=  3 and densty=  0.0000E+00.

================================================================================

=== [ionmov= 2] Broyden-Fletcher-Goldfard-Shanno method (forces)            
================================================================================

--- Iteration: ( 1/10) Internal Cycle: (1/1)
--------------------------------------------------------------------------------

 Cartesian coordinates (xcart) [bohr]
  0.00000000000000E+00  0.00000000000000E+00  0.00000000000000E+00
 Reduced coordinates (xred)
  0.00000000000000E+00  0.00000000000000E+00  0.00000000000000E+00
 Scale of Primitive Cell (acell) [bohr]
  7.60000000000000E+00  7.60000000000000E+00  7.60000000000000E+00
 Real space primitive translations (rprimd) [bohr]
  0.00000000000000E+00  3.80000000000000E+00  3.80000000000000E+00
  3.80000000000000E+00  0.00000000000000E+00  3.80000000000000E+00
  3.80000000000000E+00  3.80000000000000E+00  0.00000000000000E+00
 Unitary Cell Volume (ucvol) [Bohr^3]=  1.09744000000000E+02
 Angles (23,13,12)= [degrees]
  6.00000000000000E+01  6.00000000000000E+01  6.00000000000000E+01
 Lengths [Bohr]
  5.37401153701776E+00  5.37401153701776E+00  5.37401153701776E+00

---SELF-CONSISTENT-FIELD CONVERGENCE--------------------------------------------

 getcut: wavevector=  0.0000  0.0000  0.0000  ngfft=  15  15  15
         ecut(hartree)=      6.000   => boxcut(ratio)=   2.37462

 getcut : COMMENT -
  Note that boxcut > 2.2 ; recall that boxcut=Gcut(box)/Gcut(sphere) = 2
  is sufficient for exact treatment of convolution.
  Such a large boxcut is a waste : you could raise ecut
  e.g. ecut=    8.458196 Hartrees makes boxcut=2


 ITER STEP NUMBER     1
 vtorho : nnsclo_now=2, note that nnsclo,dbl_nnsclo,istep=0 0 1
 newocc: new Fermi energy is       0.263067 , with nelect=      3.000000
  Number of bissection calls =  48
 newocc : computed new occ. numbers for occopt= 4 , spin-unpolarized case.
 2.000 1.333 0.000
 2.000 0.000 0.000
mkrho: echo density (plane-wave part only)
 Total charge density [el/Bohr^3]
      Maximum=    3.2528E-02  at reduced coord.    0.8000    0.8667    0.8667
      Minimum=    2.7585E-03  at reduced coord.    0.0000    0.0000    0.0000
   Integrated=    3.0000E+00
 Total charge density [el/Bohr^3]
      Maximum=    3.2528E-02  at reduced coord.    0.8000    0.8667    0.8667
      Minimum=    2.7585E-03  at reduced coord.    0.0000    0.0000    0.0000
   Integrated=    3.0000E+00
  rhotov : is_hybrid_ncpp= F
  rhotov : n3xccc=           0
 ETOT  1  -2.0976647769158    -2.098E+00 1.024E-03 3.819E-01
 scprqt: <Vxc>= -3.4578125E-01 hartree

Simple mixing update:
  residual square of the potential :  0.26967713921113234
 scfcv_core: previous iteration took 00 [s]

 ITER STEP NUMBER     2
 vtorho : nnsclo_now=2, note that nnsclo,dbl_nnsclo,istep=0 0 2
 newocc: new Fermi energy is       0.262981 , with nelect=      3.000000
  Number of bissection calls =  48
 newocc : computed new occ. numbers for occopt= 4 , spin-unpolarized case.
 2.000 1.333 0.000
 2.000 0.000 0.000
mkrho: echo density (plane-wave part only)
 Total charge density [el/Bohr^3]
      Maximum=    3.2720E-02  at reduced coord.    0.8667    0.8667    0.8667
      Minimum=    2.7770E-03  at reduced coord.    0.0000    0.0000    0.0000
   Integrated=    3.0000E+00
 Total charge density [el/Bohr^3]
      Maximum=    3.2720E-02  at reduced coord.    0.8667    0.8667    0.8667
      Minimum=    2.7770E-03  at reduced coord.    0.0000    0.0000    0.0000
   Integrated=    3.0000E+00
  rhotov : is_hybrid_ncpp= F
  rhotov : n3xccc=           0
 ETOT  2  -2.0979329058481    -2.681E-04 3.236E-10 1.004E-02
 scprqt: <Vxc>= -3.4576190E-01 hartree

 Pulay update with  1 previous iterations:
 mixing of old trial potential : alpha(m:m-4)=   1.17     -0.174
 scfcv_core: previous iteration took 00 [s]

 ITER STEP NUMBER     3
 vtorho : nnsclo_now=1, note that nnsclo,dbl_nnsclo,istep=0 0 3
 newocc: new Fermi energy is       0.262827 , with nelect=      3.000000
  Number of bissection calls =  48
 newocc : computed new occ. numbers for occopt= 4 , spin-unpolarized case.
 2.000 1.333 0.000
 2.000 0.000 0.000
mkrho: echo density (plane-wave part only)
 Total charge density [el/Bohr^3]
      Maximum=    3.2792E-02  at reduced coord.    0.8667    0.8667    0.8667
      Minimum=    2.7793E-03  at reduced coord.    0.0000    0.0000    0.0000
   Integrated=    3.0000E+00
 Total charge density [el/Bohr^3]
      Maximum=    3.2792E-02  at reduced coord.    0.8667    0.8667    0.8667
      Minimum=    2.7793E-03  at reduced coord.    0.0000    0.0000    0.0000
   Integrated=    3.0000E+00
  rhotov : is_hybrid_ncpp= F
  rhotov : n3xccc=           0
 ETOT  3  -2.0979387166807    -5.811E-06 1.050E-07 5.228E-05
 scprqt: <Vxc>= -3.4575639E-01 hartree

 Pulay update with  2 previous iterations:
 mixing of old trial potential : alpha(m:m-4)=   1.23     -0.266      0.356E-01
 scfcv_core: previous iteration took 00 [s]

 ITER STEP NUMBER     4
 vtorho : nnsclo_now=1, note that nnsclo,dbl_nnsclo,istep=0 0 4
 newocc: new Fermi energy is       0.262829 , with nelect=      3.000000
  Number of bissection calls =  48
 newocc : computed new occ. numbers for occopt= 4 , spin-unpolarized case.
 2.000 1.333 0.000
 2.000 0.000 0.000
mkrho: echo density (plane-wave part only)
 Total charge density [el/Bohr^3]
      Maximum=    3.2797E-02  at reduced coord.    0.8667    0.8667    0.8667
      Minimum=    2.7820E-03  at reduced coord.    0.0000    0.0000    0.0000
   Integrated=    3.0000E+00
 Total charge density [el/Bohr^3]
      Maximum=    3.2797E-02  at reduced coord.    0.8667    0.8667    0.8667
      Minimum=    2.7820E-03  at reduced coord.    0.0000    0.0000    0.0000
   Integrated=    3.0000E+00
  rhotov : is_hybrid_ncpp= F
  rhotov : n3xccc=           0
 ETOT  4  -2.0979387453313    -2.865E-08 7.314E-10 1.924E-07
 scprqt: <Vxc>= -3.4575604E-01 hartree

 Pulay update with  3 previous iterations:
 mixing of old trial potential : alpha(m:m-4)=   1.14     -0.167      0.282E-01 -0.351E-02
 scfcv_core: previous iteration took 00 [s]

 ITER STEP NUMBER     5
 vtorho : nnsclo_now=1, note that nnsclo,dbl_nnsclo,istep=0 0 5
 newocc: new Fermi energy is       0.262830 , with nelect=      3.000000
  Number of bissection calls =  48
 newocc : computed new occ. numbers for occopt= 4 , spin-unpolarized case.
 2.000 1.333 0.000
 2.000 0.000 0.000
mkrho: echo density (plane-wave part only)
 Total charge density [el/Bohr^3]
      Maximum=    3.2797E-02  at reduced coord.    0.8667    0.8667    0.8667
      Minimum=    2.7822E-03  at reduced coord.    0.0000    0.0000    0.0000
   Integrated=    3.0000E+00
 Total charge density [el/Bohr^3]
      Maximum=    3.2797E-02  at reduced coord.    0.8667    0.8667    0.8667
      Minimum=    2.7822E-03  at reduced coord.    0.0000    0.0000    0.0000
   Integrated=    3.0000E+00
  rhotov : is_hybrid_ncpp= F
  rhotov : n3xccc=           0
 ETOT  5  -2.0979387454056    -7.432E-11 1.449E-12 7.991E-10
 scprqt: <Vxc>= -3.4575604E-01 hartree

 At SCF step    5, etot is converged : 
  for the second time, diff in etot=  7.432E-11 < toldfe=  1.000E-06

 Cartesian components of stress tensor (hartree/bohr^3)
  sigma(1 1)=  4.64978647E-05  sigma(3 2)=  0.00000000E+00
  sigma(2 2)=  4.64978647E-05  sigma(3 1)=  0.00000000E+00
  sigma(3 3)=  4.64978647E-05  sigma(2 1)=  0.00000000E+00

 fftdatar_write: About to write data to: tbase4_2o_DS1_TIM1_DEN with iomode IO_MODE_FORTRAN
 IO operation completed. cpu_time:       0.0 [s], walltime:       0.0 [s]
 Write iteration in HIST netCDF file

---OUTPUT-----------------------------------------------------------------------

 Cartesian coordinates (xcart) [bohr]
  0.00000000000000E+00  0.00000000000000E+00  0.00000000000000E+00
 Reduced coordinates (xred)
  0.00000000000000E+00  0.00000000000000E+00  0.00000000000000E+00
 Cartesian forces (fcart) [Ha/bohr]; max,rms= 0.00000E+00 0.00000E+00 (free atoms)
 -0.00000000000000E+00 -0.00000000000000E+00 -0.00000000000000E+00
 Reduced forces (fred)
  0.00000000000000E+00  0.00000000000000E+00  0.00000000000000E+00
 Scale of Primitive Cell (acell) [bohr]
  7.60000000000000E+00  7.60000000000000E+00  7.60000000000000E+00
 Real space primitive translations (rprimd) [bohr]
  0.00000000000000E+00  3.80000000000000E+00  3.80000000000000E+00
  3.80000000000000E+00  0.00000000000000E+00  3.80000000000000E+00
  3.80000000000000E+00  3.80000000000000E+00  0.00000000000000E+00
 Unitary Cell Volume (ucvol) [Bohr^3]=  1.09744000000000E+02
 Angles (23,13,12)= [degrees]
  6.00000000000000E+01  6.00000000000000E+01  6.00000000000000E+01
 Lengths [Bohr]
  5.37401153701776E+00  5.37401153701776E+00  5.37401153701776E+00
 Stress tensor in cartesian coordinates (strten) [Ha/bohr^3]
  4.64978646711158E-05  0.00000000000000E+00  0.00000000000000E+00
  0.00000000000000E+00  4.64978646711160E-05  0.00000000000000E+00
  0.00000000000000E+00  0.00000000000000E+00  4.64978646711160E-05
 Total energy (etotal) [Ha]= -2.09793874540558E+00
 fconv : at Broyd/MD step   1, gradients have not converged yet. 
  max grad (force/stress) = 4.6498E-03 > tolmxf= 5.0000E-05 ha/bohr (free atoms)

Inverse hessian has been initialized.
 EXIT:           1           1
 mover: previous time step took 00 [s]

--- Iteration: ( 2/10) Internal Cycle: (1/1)
--------------------------------------------------------------------------------

 Cartesian coordinates (xcart) [bohr]
  0.00000000000000E+00  0.00000000000000E+00  0.00000000000000E+00
 Reduced coordinates (xred)
  0.00000000000000E+00  0.00000000000000E+00  0.00000000000000E+00
 Scale of Primitive Cell (acell) [bohr]
  7.58939848685498E+00  7.58939848685498E+00  7.58939848685498E+00
 Real space primitive translations (rprimd) [bohr]
  0.00000000000000E+00  3.79469924342749E+00  3.79469924342749E+00
  3.79469924342749E+00  0.00000000000000E+00  3.79469924342749E+00
  3.79469924342749E+00  3.79469924342749E+00  0.00000000000000E+00
 Unitary Cell Volume (ucvol) [Bohr^3]=  1.09285382787538E+02
 Angles (23,13,12)= [degrees]
  6.00000000000000E+01  6.00000000000000E+01  6.00000000000000E+01
 Lengths [Bohr]
  5.36651513518208E+00  5.36651513518208E+00  5.36651513518208E+00

---SELF-CONSISTENT-FIELD CONVERGENCE--------------------------------------------

 getcut: wavevector=  0.0000  0.0000  0.0000  ngfft=  15  15  15
         ecut(hartree)=      6.000   => boxcut(ratio)=   2.37793

 getcut : COMMENT -
  Note that boxcut > 2.2 ; recall that boxcut=Gcut(box)/Gcut(sphere) = 2
  is sufficient for exact treatment of convolution.
  Such a large boxcut is a waste : you could raise ecut
  e.g. ecut=    8.481843 Hartrees makes boxcut=2


 ITER STEP NUMBER     1
 vtorho : nnsclo_now=2, note that nnsclo,dbl_nnsclo,istep=0 0 1
 newocc: new Fermi energy is       0.264708 , with nelect=      3.000000
  Number of bissection calls =  48
 newocc : computed new occ. numbers for occopt= 4 , spin-unpolarized case.
 2.000 1.333 0.000
 2.000 0.000 0.000
mkrho: echo density (plane-wave part only)
 Total charge density [el/Bohr^3]
      Maximum=    3.2889E-02  at reduced coord.    0.8667    0.8667    0.8667
      Minimum=    2.7687E-03  at reduced coord.    0.0000    0.0000    0.0000
   Integrated=    3.0000E+00
 Total charge density [el/Bohr^3]
      Maximum=    3.2889E-02  at reduced coord.    0.8667    0.8667    0.8667
      Minimum=    2.7687E-03  at reduced coord.    0.0000    0.0000    0.0000
   Integrated=    3.0000E+00
  rhotov : is_hybrid_ncpp= F
  rhotov : n3xccc=           0
 ETOT  1  -2.0979574504260    -2.098E+00 2.153E-12 1.594E-05
 scprqt: <Vxc>= -3.4619354E-01 hartree

Simple mixing update:
  residual square of the potential :   8.6791184210634058E-006
 scfcv_core: previous iteration took 00 [s]

 ITER STEP NUMBER     2
 vtorho : nnsclo_now=2, note that nnsclo,dbl_nnsclo,istep=0 0 2
 newocc: new Fermi energy is       0.264275 , with nelect=      3.000000
  Number of bissection calls =  47
 newocc : computed new occ. numbers for occopt= 4 , spin-unpolarized case.
 2.000 1.333 0.000
 2.000 0.000 0.000
mkrho: echo density (plane-wave part only)
 Total charge density [el/Bohr^3]
      Maximum=    3.2890E-02  at reduced coord.    0.8667    0.8667    0.8667
      Minimum=    2.7703E-03  at reduced coord.    0.0000    0.0000    0.0000
   Integrated=    3.0000E+00
 Total charge density [el/Bohr^3]
      Maximum=    3.2890E-02  at reduced coord.    0.8667    0.8667    0.8667
      Minimum=    2.7703E-03  at reduced coord.    0.0000    0.0000    0.0000
   Integrated=    3.0000E+00
  rhotov : is_hybrid_ncpp= F
  rhotov : n3xccc=           0
 ETOT  2  -2.0979574577359    -7.310E-09 1.944E-15 9.906E-07
 scprqt: <Vxc>= -3.4619393E-01 hartree

 Pulay update with  1 previous iterations:
 mixing of old trial potential : alpha(m:m-4)=   1.32     -0.322
 scfcv_core: previous iteration took 00 [s]

 ITER STEP NUMBER     3
 vtorho : nnsclo_now=1, note that nnsclo,dbl_nnsclo,istep=0 0 3
 newocc: new Fermi energy is       0.264275 , with nelect=      3.000000
  Number of bissection calls =  48
 newocc : computed new occ. numbers for occopt= 4 , spin-unpolarized case.
 2.000 1.333 0.000
 2.000 0.000 0.000
mkrho: echo density (plane-wave part only)
 Total charge density [el/Bohr^3]
      Maximum=    3.2890E-02  at reduced coord.    0.8667    0.8667    0.8667
      Minimum=    2.7709E-03  at reduced coord.    0.0000    0.0000    0.0000
   Integrated=    3.0000E+00
 Total charge density [el/Bohr^3]
      Maximum=    3.2890E-02  at reduced coord.    0.8667    0.8667    0.8667
      Minimum=    2.7709E-03  at reduced coord.    0.0000    0.0000    0.0000
   Integrated=    3.0000E+00
  rhotov : is_hybrid_ncpp= F
  rhotov : n3xccc=           0
 ETOT  3  -2.0979574582395    -5.036E-10 7.562E-12 5.972E-10
 scprqt: <Vxc>= -3.4619404E-01 hartree

 At SCF step    3, etot is converged : 
  for the second time, diff in etot=  5.036E-10 < toldfe=  1.000E-06

 Cartesian components of stress tensor (hartree/bohr^3)
  sigma(1 1)=  3.50337004E-05  sigma(3 2)=  0.00000000E+00
  sigma(2 2)=  3.50337004E-05  sigma(3 1)=  0.00000000E+00
  sigma(3 3)=  3.50337004E-05  sigma(2 1)=  0.00000000E+00

 fftdatar_write: About to write data to: tbase4_2o_DS1_TIM2_DEN with iomode IO_MODE_FORTRAN
 IO operation completed. cpu_time:       0.0 [s], walltime:       0.0 [s]
 Write iteration in HIST netCDF file

---OUTPUT-----------------------------------------------------------------------

 Cartesian coordinates (xcart) [bohr]
  0.00000000000000E+00  0.00000000000000E+00  0.00000000000000E+00
 Reduced coordinates (xred)
  0.00000000000000E+00  0.00000000000000E+00  0.00000000000000E+00
 Cartesian forces (fcart) [Ha/bohr]; max,rms= 0.00000E+00 0.00000E+00 (free atoms)
 -0.00000000000000E+00 -0.00000000000000E+00 -0.00000000000000E+00
 Reduced forces (fred)
  0.00000000000000E+00  0.00000000000000E+00  0.00000000000000E+00
 Scale of Primitive Cell (acell) [bohr]
  7.58939848685498E+00  7.58939848685498E+00  7.58939848685498E+00
 Real space primitive translations (rprimd) [bohr]
  0.00000000000000E+00  3.79469924342749E+00  3.79469924342749E+00
  3.79469924342749E+00  0.00000000000000E+00  3.79469924342749E+00
  3.79469924342749E+00  3.79469924342749E+00  0.00000000000000E+00
 Unitary Cell Volume (ucvol) [Bohr^3]=  1.09285382787538E+02
 Angles (23,13,12)= [degrees]
  6.00000000000000E+01  6.00000000000000E+01  6.00000000000000E+01
 Lengths [Bohr]
  5.36651513518208E+00  5.36651513518208E+00  5.36651513518208E+00
 Stress tensor in cartesian coordinates (strten) [Ha/bohr^3]
  3.50337003584135E-05  0.00000000000000E+00  0.00000000000000E+00
  0.00000000000000E+00  3.50337003584135E-05  0.00000000000000E+00
  0.00000000000000E+00  0.00000000000000E+00  3.50337003584136E-05
 Total energy (etotal) [Ha]= -2.09795745823948E+00

 Difference of energy with previous step (new-old):
           Absolute (Ha)=-1.87128E-05
           Relative     =-8.91959E-06
 fconv : at Broyd/MD step   2, gradients have not converged yet. 
  max grad (force/stress) = 3.5034E-03 > tolmxf= 5.0000E-05 ha/bohr (free atoms)

 EXIT:           1           1
 mover: previous time step took 00 [s]

--- Iteration: ( 3/10) Internal Cycle: (1/1)
--------------------------------------------------------------------------------

 Cartesian coordinates (xcart) [bohr]
  0.00000000000000E+00  0.00000000000000E+00  0.00000000000000E+00
 Reduced coordinates (xred)
  0.00000000000000E+00  0.00000000000000E+00  0.00000000000000E+00
 Scale of Primitive Cell (acell) [bohr]
  7.55754319060369E+00  7.55754319060369E+00  7.55754319060369E+00
 Real space primitive translations (rprimd) [bohr]
  0.00000000000000E+00  3.77877159530185E+00  3.77877159530185E+00
  3.77877159530185E+00  0.00000000000000E+00  3.77877159530185E+00
  3.77877159530185E+00  3.77877159530185E+00  0.00000000000000E+00
 Unitary Cell Volume (ucvol) [Bohr^3]=  1.07915026593782E+02
 Angles (23,13,12)= [degrees]
  6.00000000000000E+01  6.00000000000000E+01  6.00000000000000E+01
 Lengths [Bohr]
  5.34399003918609E+00  5.34399003918609E+00  5.34399003918609E+00

---SELF-CONSISTENT-FIELD CONVERGENCE--------------------------------------------

 getcut: wavevector=  0.0000  0.0000  0.0000  ngfft=  15  15  15
         ecut(hartree)=      6.000   => boxcut(ratio)=   2.38796

 getcut : COMMENT -
  Note that boxcut > 2.2 ; recall that boxcut=Gcut(box)/Gcut(sphere) = 2
  is sufficient for exact treatment of convolution.
  Such a large boxcut is a waste : you could raise ecut
  e.g. ecut=    8.553496 Hartrees makes boxcut=2


 ITER STEP NUMBER     1
 vtorho : nnsclo_now=2, note that nnsclo,dbl_nnsclo,istep=0 0 1
 newocc: new Fermi energy is       0.269964 , with nelect=      3.000000
  Number of bissection calls =  48
 newocc : computed new occ. numbers for occopt= 4 , spin-unpolarized case.
 2.000 1.333 0.000
 2.000 0.000 0.000
mkrho: echo density (plane-wave part only)
 Total charge density [el/Bohr^3]
      Maximum=    3.3255E-02  at reduced coord.    0.8000    0.8667    0.8667
      Minimum=    2.7312E-03  at reduced coord.    0.0000    0.0000    0.0000
   Integrated=    3.0000E+00
 Total charge density [el/Bohr^3]
      Maximum=    3.3255E-02  at reduced coord.    0.8000    0.8667    0.8667
      Minimum=    2.7312E-03  at reduced coord.    0.0000    0.0000    0.0000
   Integrated=    3.0000E+00
  rhotov : is_hybrid_ncpp= F
  rhotov : n3xccc=           0
 ETOT  1  -2.0979806466429    -2.098E+00 2.544E-11 1.452E-04
 scprqt: <Vxc>= -3.4751462E-01 hartree

Simple mixing update:
  residual square of the potential :   7.9357908380042226E-005
 scfcv_core: previous iteration took 00 [s]

 ITER STEP NUMBER     2
 vtorho : nnsclo_now=2, note that nnsclo,dbl_nnsclo,istep=0 0 2
 newocc: new Fermi energy is       0.268657 , with nelect=      3.000000
  Number of bissection calls =  48
 newocc : computed new occ. numbers for occopt= 4 , spin-unpolarized case.
 2.000 1.333 0.000
 2.000 0.000 0.000
mkrho: echo density (plane-wave part only)
 Total charge density [el/Bohr^3]
      Maximum=    3.3253E-02  at reduced coord.    0.8000    0.8667    0.8667
      Minimum=    2.7362E-03  at reduced coord.    0.0000    0.0000    0.0000
   Integrated=    3.0000E+00
 Total charge density [el/Bohr^3]
      Maximum=    3.3253E-02  at reduced coord.    0.8000    0.8667    0.8667
      Minimum=    2.7362E-03  at reduced coord.    0.0000    0.0000    0.0000
   Integrated=    3.0000E+00
  rhotov : is_hybrid_ncpp= F
  rhotov : n3xccc=           0
 ETOT  2  -2.0979807118447    -6.520E-08 1.816E-14 8.967E-06
 scprqt: <Vxc>= -3.4751587E-01 hartree

 Pulay update with  1 previous iterations:
 mixing of old trial potential : alpha(m:m-4)=   1.32     -0.321
 scfcv_core: previous iteration took 00 [s]

 ITER STEP NUMBER     3
 vtorho : nnsclo_now=1, note that nnsclo,dbl_nnsclo,istep=0 0 3
 newocc: new Fermi energy is       0.268659 , with nelect=      3.000000
  Number of bissection calls =  45
 newocc : computed new occ. numbers for occopt= 4 , spin-unpolarized case.
 2.000 1.333 0.000
 2.000 0.000 0.000
mkrho: echo density (plane-wave part only)
 Total charge density [el/Bohr^3]
      Maximum=    3.3253E-02  at reduced coord.    0.8000    0.8667    0.8667
      Minimum=    2.7378E-03  at reduced coord.    0.0000    0.0000    0.0000
   Integrated=    3.0000E+00
 Total charge density [el/Bohr^3]
      Maximum=    3.3253E-02  at reduced coord.    0.8000    0.8667    0.8667
      Minimum=    2.7378E-03  at reduced coord.    0.0000    0.0000    0.0000
   Integrated=    3.0000E+00
  rhotov : is_hybrid_ncpp= F
  rhotov : n3xccc=           0
 ETOT  3  -2.0979807163129    -4.468E-09 6.557E-11 5.451E-09
 scprqt: <Vxc>= -3.4751623E-01 hartree

 At SCF step    3, etot is converged : 
  for the second time, diff in etot=  4.468E-09 < toldfe=  1.000E-06

 Cartesian components of stress tensor (hartree/bohr^3)
  sigma(1 1)= -1.57916195E-06  sigma(3 2)=  0.00000000E+00
  sigma(2 2)= -1.57916195E-06  sigma(3 1)=  0.00000000E+00
  sigma(3 3)= -1.57916195E-06  sigma(2 1)=  0.00000000E+00

 fftdatar_write: About to write data to: tbase4_2o_DS1_TIM3_DEN with iomode IO_MODE_FORTRAN
 IO operation completed. cpu_time:       0.0 [s], walltime:       0.0 [s]
 Write iteration in HIST netCDF file

---OUTPUT-----------------------------------------------------------------------

 Cartesian coordinates (xcart) [bohr]
  0.00000000000000E+00  0.00000000000000E+00  0.00000000000000E+00
 Reduced coordinates (xred)
  0.00000000000000E+00  0.00000000000000E+00  0.00000000000000E+00
 Cartesian forces (fcart) [Ha/bohr]; max,rms= 0.00000E+00 0.00000E+00 (free atoms)
 -0.00000000000000E+00 -0.00000000000000E+00 -0.00000000000000E+00
 Reduced forces (fred)
  0.00000000000000E+00  0.00000000000000E+00  0.00000000000000E+00
 Scale of Primitive Cell (acell) [bohr]
  7.55754319060369E+00  7.55754319060369E+00  7.55754319060369E+00
 Real space primitive translations (rprimd) [bohr]
  0.00000000000000E+00  3.77877159530185E+00  3.77877159530185E+00
  3.77877159530185E+00  0.00000000000000E+00  3.77877159530185E+00
  3.77877159530185E+00  3.77877159530185E+00  0.00000000000000E+00
 Unitary Cell Volume (ucvol) [Bohr^3]=  1.07915026593782E+02
 Angles (23,13,12)= [degrees]
  6.00000000000000E+01  6.00000000000000E+01  6.00000000000000E+01
 Lengths [Bohr]
  5.34399003918609E+00  5.34399003918609E+00  5.34399003918609E+00
 Stress tensor in cartesian coordinates (strten) [Ha/bohr^3]
 -1.57916194780410E-06  0.00000000000000E+00  0.00000000000000E+00
  0.00000000000000E+00 -1.57916194780421E-06  0.00000000000000E+00
  0.00000000000000E+00  0.00000000000000E+00 -1.57916194780400E-06
 Total energy (etotal) [Ha]= -2.09798071631292E+00

 Difference of energy with previous step (new-old):
           Absolute (Ha)=-2.32581E-05
           Relative     =-1.10860E-05
 fconv : at Broyd/MD step   3, gradients have not converged yet. 
  max grad (force/stress) = 1.5792E-04 > tolmxf= 5.0000E-05 ha/bohr (free atoms)

 EXIT:           1           1
 mover: previous time step took 00 [s]

--- Iteration: ( 4/10) Internal Cycle: (1/1)
--------------------------------------------------------------------------------

 Cartesian coordinates (xcart) [bohr]
  0.00000000000000E+00  0.00000000000000E+00  0.00000000000000E+00
 Reduced coordinates (xred)
  0.00000000000000E+00  0.00000000000000E+00  0.00000000000000E+00
 Scale of Primitive Cell (acell) [bohr]
  7.55890065805723E+00  7.55890065805723E+00  7.55890065805723E+00
 Real space primitive translations (rprimd) [bohr]
  0.00000000000000E+00  3.77945032902861E+00  3.77945032902861E+00
  3.77945032902861E+00  0.00000000000000E+00  3.77945032902861E+00
  3.77945032902861E+00  3.77945032902861E+00  0.00000000000000E+00
 Unitary Cell Volume (ucvol) [Bohr^3]=  1.07973187339916E+02
 Angles (23,13,12)= [degrees]
  6.00000000000000E+01  6.00000000000000E+01  6.00000000000000E+01
 Lengths [Bohr]
  5.34494991362772E+00  5.34494991362772E+00  5.34494991362772E+00

---SELF-CONSISTENT-FIELD CONVERGENCE--------------------------------------------

 getcut: wavevector=  0.0000  0.0000  0.0000  ngfft=  15  15  15
         ecut(hartree)=      6.000   => boxcut(ratio)=   2.38753

 getcut : COMMENT -
  Note that boxcut > 2.2 ; recall that boxcut=Gcut(box)/Gcut(sphere) = 2
  is sufficient for exact treatment of convolution.
  Such a large boxcut is a waste : you could raise ecut
  e.g. ecut=    8.550424 Hartrees makes boxcut=2


 ITER STEP NUMBER     1
 vtorho : nnsclo_now=2, note that nnsclo,dbl_nnsclo,istep=0 0 1
 newocc: new Fermi energy is       0.268415 , with nelect=      3.000000
  Number of bissection calls =  48
 newocc : computed new occ. numbers for occopt= 4 , spin-unpolarized case.
 2.000 1.333 0.000
 2.000 0.000 0.000
mkrho: echo density (plane-wave part only)
 Total charge density [el/Bohr^3]
      Maximum=    3.3235E-02  at reduced coord.    0.8000    0.8667    0.8667
      Minimum=    2.7395E-03  at reduced coord.    0.0000    0.0000    0.0000
   Integrated=    3.0000E+00
 Total charge density [el/Bohr^3]
      Maximum=    3.3235E-02  at reduced coord.    0.8000    0.8667    0.8667
      Minimum=    2.7395E-03  at reduced coord.    0.0000    0.0000    0.0000
   Integrated=    3.0000E+00
  rhotov : is_hybrid_ncpp= F
  rhotov : n3xccc=           0
 ETOT  1  -2.0979807617150    -2.098E+00 3.701E-14 2.827E-07
 scprqt: <Vxc>= -3.4745975E-01 hartree

Simple mixing update:
  residual square of the potential :   1.5410698823207393E-007
 scfcv_core: previous iteration took 00 [s]

 ITER STEP NUMBER     2
 vtorho : nnsclo_now=2, note that nnsclo,dbl_nnsclo,istep=0 0 2
 newocc: new Fermi energy is       0.268471 , with nelect=      3.000000
  Number of bissection calls =  48
 newocc : computed new occ. numbers for occopt= 4 , spin-unpolarized case.
 2.000 1.333 0.000
 2.000 0.000 0.000
mkrho: echo density (plane-wave part only)
 Total charge density [el/Bohr^3]
      Maximum=    3.3235E-02  at reduced coord.    0.8000    0.8667    0.8667
      Minimum=    2.7393E-03  at reduced coord.    0.0000    0.0000    0.0000
   Integrated=    3.0000E+00
 Total charge density [el/Bohr^3]
      Maximum=    3.3235E-02  at reduced coord.    0.8000    0.8667    0.8667
      Minimum=    2.7393E-03  at reduced coord.    0.0000    0.0000    0.0000
   Integrated=    3.0000E+00
  rhotov : is_hybrid_ncpp= F
  rhotov : n3xccc=           0
 ETOT  2  -2.0979807618420    -1.270E-10 3.414E-17 1.752E-08
 scprqt: <Vxc>= -3.4745970E-01 hartree

 Pulay update with  1 previous iterations:
 mixing of old trial potential : alpha(m:m-4)=   1.32     -0.322
 scfcv_core: previous iteration took 00 [s]

 ITER STEP NUMBER     3
 vtorho : nnsclo_now=1, note that nnsclo,dbl_nnsclo,istep=0 0 3
 newocc: new Fermi energy is       0.268470 , with nelect=      3.000000
  Number of bissection calls =  46
 newocc : computed new occ. numbers for occopt= 4 , spin-unpolarized case.
 2.000 1.333 0.000
 2.000 0.000 0.000
mkrho: echo density (plane-wave part only)
 Total charge density [el/Bohr^3]
      Maximum=    3.3235E-02  at reduced coord.    0.8000    0.8667    0.8667
      Minimum=    2.7392E-03  at reduced coord.    0.0000    0.0000    0.0000
   Integrated=    3.0000E+00
 Total charge density [el/Bohr^3]
      Maximum=    3.3235E-02  at reduced coord.    0.8000    0.8667    0.8667
      Minimum=    2.7392E-03  at reduced coord.    0.0000    0.0000    0.0000
   Integrated=    3.0000E+00
  rhotov : is_hybrid_ncpp= F
  rhotov : n3xccc=           0
 ETOT  3  -2.0979807618507    -8.754E-12 1.272E-13 1.018E-11
 scprqt: <Vxc>= -3.4745969E-01 hartree

 At SCF step    3, etot is converged : 
  for the second time, diff in etot=  8.754E-12 < toldfe=  1.000E-06

 Cartesian components of stress tensor (hartree/bohr^3)
  sigma(1 1)=  2.13669732E-08  sigma(3 2)=  0.00000000E+00
  sigma(2 2)=  2.13669732E-08  sigma(3 1)=  0.00000000E+00
  sigma(3 3)=  2.13669732E-08  sigma(2 1)=  0.00000000E+00

 fftdatar_write: About to write data to: tbase4_2o_DS1_TIM4_DEN with iomode IO_MODE_FORTRAN
 IO operation completed. cpu_time:       0.0 [s], walltime:       0.0 [s]
 Write iteration in HIST netCDF file

---OUTPUT-----------------------------------------------------------------------

 Cartesian coordinates (xcart) [bohr]
  0.00000000000000E+00  0.00000000000000E+00  0.00000000000000E+00
 Reduced coordinates (xred)
  0.00000000000000E+00  0.00000000000000E+00  0.00000000000000E+00
 Cartesian forces (fcart) [Ha/bohr]; max,rms= 0.00000E+00 0.00000E+00 (free atoms)
 -0.00000000000000E+00 -0.00000000000000E+00 -0.00000000000000E+00
 Reduced forces (fred)
  0.00000000000000E+00  0.00000000000000E+00  0.00000000000000E+00
 Scale of Primitive Cell (acell) [bohr]
  7.55890065805723E+00  7.55890065805723E+00  7.55890065805723E+00
 Real space primitive translations (rprimd) [bohr]
  0.00000000000000E+00  3.77945032902861E+00  3.77945032902861E+00
  3.77945032902861E+00  0.00000000000000E+00  3.77945032902861E+00
  3.77945032902861E+00  3.77945032902861E+00  0.00000000000000E+00
 Unitary Cell Volume (ucvol) [Bohr^3]=  1.07973187339916E+02
 Angles (23,13,12)= [degrees]
  6.00000000000000E+01  6.00000000000000E+01  6.00000000000000E+01
 Lengths [Bohr]
  5.34494991362772E+00  5.34494991362772E+00  5.34494991362772E+00
 Stress tensor in cartesian coordinates (strten) [Ha/bohr^3]
  2.13669732119148E-08  0.00000000000000E+00  0.00000000000000E+00
  0.00000000000000E+00  2.13669732118064E-08  0.00000000000000E+00
  0.00000000000000E+00  0.00000000000000E+00  2.13669732117522E-08
 Total energy (etotal) [Ha]= -2.09798076185074E+00

 Difference of energy with previous step (new-old):
           Absolute (Ha)=-4.55378E-08
           Relative     =-2.17055E-08

 At Broyd/MD step   4, gradients are converged : 
  max grad (force/stress) = 2.1367E-06 < tolmxf= 5.0000E-05 ha/bohr (free atoms)

================================================================================

 ----iterations are completed or convergence reached----

 Mean square residual over all n,k,spin=   76.493E-15; max=  12.721E-14
  -0.2500  0.5000  0.0000    1  1.27209E-13 kpt; spin; max resid(k); each band:
  1.04E-13 1.04E-13 1.27E-13
  -0.2500  0.0000  0.0000    1  5.52429E-14 kpt; spin; max resid(k); each band:
  3.97E-14 5.52E-14 2.82E-14

 outwf: write wavefunction to file tbase4_2o_DS1_WFK, with iomode -1
 outwf with iomode: -1, cpu_time:     0.00[s], walltime:     0.00 [s]
 prteigrs : about to open file tbase4_2o_DS1_EIG
 Fermi (or HOMO) energy (hartree) =   0.26847   Average Vxc (hartree)=  -0.34746
 Eigenvalues (hartree) for nkpt=   2  k points:
 kpt#   1, nband=  3, wtk=  0.75000, kpt= -0.2500  0.5000  0.0000 (reduced coord)
   0.09425    0.25438    0.41908
      occupation numbers for kpt#   1
   2.00003    1.33307    0.00014
 kpt#   2, nband=  3, wtk=  0.25000, kpt= -0.2500  0.0000  0.0000 (reduced coord)
  -0.07038    0.41093    0.68874
      occupation numbers for kpt#   2
   2.00000    0.00030    0.00000
 Total charge density [el/Bohr^3]
      Maximum=    3.3235E-02  at reduced coord.    0.8000    0.8667    0.8667
 Next maximum=    3.3235E-02  at reduced coord.    0.4667    0.8667    0.8667
      Minimum=    2.7392E-03  at reduced coord.    0.0000    0.0000    0.0000
 Next minimum=    4.8415E-03  at reduced coord.    0.0667    0.0000    0.0000
   Integrated=    3.0000E+00

 Cartesian components of stress tensor (hartree/bohr^3)
  sigma(1 1)=  2.13669732E-08  sigma(3 2)=  0.00000000E+00
  sigma(2 2)=  2.13669732E-08  sigma(3 1)=  0.00000000E+00
  sigma(3 3)=  2.13669732E-08  sigma(2 1)=  0.00000000E+00

-Cartesian components of stress tensor (GPa)         [Pressure= -6.2864E-04 GPa]
- sigma(1 1)=  6.28637950E-04  sigma(3 2)=  0.00000000E+00
- sigma(2 2)=  6.28637950E-04  sigma(3 1)=  0.00000000E+00
- sigma(3 3)=  6.28637950E-04  sigma(2 1)=  0.00000000E+00

================================================================================
== DATASET  2 ==================================================================
-   nproc =    2


--- !COMMENT
src_file: m_xgScalapack.F90
src_line: 251
message: |
    xgScalapack in auto mode
...

 mkfilename : getwfk/=0, take file _WFK from output of DATASET   1.


 getdim_nloc : deduce lmnmax  =   9, lnmax  =   3,
                      lmnmaxso=   9, lnmaxso=   3.
 Exchange-correlation functional for the present dataset will be:
  LDA: new Teter (4/93) with spin-polarized option - ixc=1
 Citation for XC functional:
  S. Goedecker, M. Teter, J. Huetter, PRB 54, 1703 (1996)

 Unit cell volume ucvol=  1.0974400E+02 bohr^3
 Angles (23,13,12)=  6.00000000E+01  6.00000000E+01  6.00000000E+01 degrees

 getcut: wavevector=  0.0000  0.0000  0.0000  ngfft=  15  15  15
         ecut(hartree)=      6.615   => boxcut(ratio)=   2.26154

 getcut : COMMENT -
  Note that boxcut > 2.2 ; recall that boxcut=Gcut(box)/Gcut(sphere) = 2
  is sufficient for exact treatment of convolution.
  Such a large boxcut is a waste : you could raise ecut
  e.g. ecut=    8.458196 Hartrees makes boxcut=2

 kpgio: loop on k-points done in parallel
inwffil: examining the header of disk file tbase4_2o_DS1_WFK

================================================================================

          - hdr_check: checking restart file header for consistency -


        current calculation                         restart file
        -------------------                         ------------

  calculation expects a wf_planewave    |  input file contains a wf_planewave
. ABINIT  code version 8.10.3           |  ABINIT  code version 8.10.3
. date 20191018 bantot   30 natom    1  |  date 20191018 bantot    6 natom    1
  nkpt  10 nsym 48 ngfft  15,  15,  15  |  nkpt   2 nsym 48 ngfft  15,  15,  15
  ntypat  1 ecut_eff   6.6150000        |  ntypat  1 ecut_eff   6.6150000
  usepaw  0                             |  usepaw  0
  usewvl  0                             |  usewvl  0
  rprimd:                               |  rprimd:
     0.0000000   3.8000000   3.8000000  |     0.0000000   3.8000000   3.8000000
     3.8000000   0.0000000   3.8000000  |     3.8000000   0.0000000   3.8000000
     3.8000000   3.8000000   0.0000000  |     3.8000000   3.8000000   0.0000000

--- !WARNING
src_file: m_hdr.F90
src_line: 4054
message: |
    input nkpt=10 not equal disk file nkpt=2
...

  symafm:                               |  symafm:
    1  1  1  1  1  1  1  1  1  1  1  1  |    1  1  1  1  1  1  1  1  1  1  1  1
    1  1  1  1  1  1  1  1  1  1  1  1  |    1  1  1  1  1  1  1  1  1  1  1  1
    1  1  1  1  1  1  1  1  1  1  1  1  |    1  1  1  1  1  1  1  1  1  1  1  1
    1  1  1  1  1  1  1  1  1  1  1  1  |    1  1  1  1  1  1  1  1  1  1  1  1
  symrel:                               |  symrel:
    1  0  0  0  1  0  0  0  1           |    1  0  0  0  1  0  0  0  1
   -1  0  0  0 -1  0  0  0 -1           |   -1  0  0  0 -1  0  0  0 -1
    0 -1  1  0 -1  0  1 -1  0           |    0 -1  1  0 -1  0  1 -1  0
    0  1 -1  0  1  0 -1  1  0           |    0  1 -1  0  1  0 -1  1  0
   -1  0  0 -1  0  1 -1  1  0           |   -1  0  0 -1  0  1 -1  1  0
    1  0  0  1  0 -1  1 -1  0           |    1  0  0  1  0 -1  1 -1  0
    0  1 -1  1  0 -1  0  0 -1           |    0  1 -1  1  0 -1  0  0 -1
    0 -1  1 -1  0  1  0  0  1           |    0 -1  1 -1  0  1  0  0  1
   -1  0  0 -1  1  0 -1  0  1           |   -1  0  0 -1  1  0 -1  0  1
    1  0  0  1 -1  0  1  0 -1           |    1  0  0  1 -1  0  1  0 -1
    0 -1  1  1 -1  0  0 -1  0           |    0 -1  1  1 -1  0  0 -1  0
    0  1 -1 -1  1  0  0  1  0           |    0  1 -1 -1  1  0  0  1  0
    1  0  0  0  0  1  0  1  0           |    1  0  0  0  0  1  0  1  0
   -1  0  0  0  0 -1  0 -1  0           |   -1  0  0  0  0 -1  0 -1  0
    0  1 -1  0  0 -1  1  0 -1           |    0  1 -1  0  0 -1  1  0 -1
    0 -1  1  0  0  1 -1  0  1           |    0 -1  1  0  0  1 -1  0  1
   -1  0  1 -1  1  0 -1  0  0           |   -1  0  1 -1  1  0 -1  0  0
    1  0 -1  1 -1  0  1  0  0           |    1  0 -1  1 -1  0  1  0  0
    0 -1  0  1 -1  0  0 -1  1           |    0 -1  0  1 -1  0  0 -1  1
    0  1  0 -1  1  0  0  1 -1           |    0  1  0 -1  1  0  0  1 -1
    1  0 -1  0  0 -1  0  1 -1           |    1  0 -1  0  0 -1  0  1 -1
   -1  0  1  0  0  1  0 -1  1           |   -1  0  1  0  0  1  0 -1  1
    0  1  0  0  0  1  1  0  0           |    0  1  0  0  0  1  1  0  0
    0 -1  0  0  0 -1 -1  0  0           |    0 -1  0  0  0 -1 -1  0  0
    1  0 -1  0  1 -1  0  0 -1           |    1  0 -1  0  1 -1  0  0 -1
   -1  0  1  0 -1  1  0  0  1           |   -1  0  1  0 -1  1  0  0  1
    0 -1  0  0 -1  1  1 -1  0           |    0 -1  0  0 -1  1  1 -1  0
    0  1  0  0  1 -1 -1  1  0           |    0  1  0  0  1 -1 -1  1  0
   -1  0  1 -1  0  0 -1  1  0           |   -1  0  1 -1  0  0 -1  1  0
    1  0 -1  1  0  0  1 -1  0           |    1  0 -1  1  0  0  1 -1  0
    0  1  0  1  0  0  0  0  1           |    0  1  0  1  0  0  0  0  1
    0 -1  0 -1  0  0  0  0 -1           |    0 -1  0 -1  0  0  0  0 -1
    0  0 -1  0  1 -1  1  0 -1           |    0  0 -1  0  1 -1  1  0 -1
    0  0  1  0 -1  1 -1  0  1           |    0  0  1  0 -1  1 -1  0  1
    1 -1  0  0 -1  1  0 -1  0           |    1 -1  0  0 -1  1  0 -1  0
   -1  1  0  0  1 -1  0  1  0           |   -1  1  0  0  1 -1  0  1  0
    0  0  1  1  0  0  0  1  0           |    0  0  1  1  0  0  0  1  0
    0  0 -1 -1  0  0  0 -1  0           |    0  0 -1 -1  0  0  0 -1  0
   -1  1  0 -1  0  0 -1  0  1           |   -1  1  0 -1  0  0 -1  0  1
    1 -1  0  1  0  0  1  0 -1           |    1 -1  0  1  0  0  1  0 -1
    0  0  1  0  1  0  1  0  0           |    0  0  1  0  1  0  1  0  0
    0  0 -1  0 -1  0 -1  0  0           |    0  0 -1  0 -1  0 -1  0  0
    1 -1  0  0 -1  0  0 -1  1           |    1 -1  0  0 -1  0  0 -1  1
   -1  1  0  0  1  0  0  1 -1           |   -1  1  0  0  1  0  0  1 -1
    0  0 -1  1  0 -1  0  1 -1           |    0  0 -1  1  0 -1  0  1 -1
    0  0  1 -1  0  1  0 -1  1           |    0  0  1 -1  0  1  0 -1  1
   -1  1  0 -1  0  1 -1  0  0           |   -1  1  0 -1  0  1 -1  0  0
    1 -1  0  1  0 -1  1  0  0           |    1 -1  0  1  0 -1  1  0  0
  typat:                                |  typat:
    1                                   |    1
  so_psp  :                             |  so_psp  :
    1                                   |    1

--- !WARNING
src_file: m_hdr.F90
src_line: 4297
message: |
    input kptrlatt= 4 -4 4 -4 4 4 -4 -4 4  /= disk file kptrlatt=2 -2 2 -2 2 2 -2 -2 2
...

  tnons:                                |  tnons:
     0.0000000   0.0000000   0.0000000  |     0.0000000   0.0000000   0.0000000
     0.0000000   0.0000000   0.0000000  |     0.0000000   0.0000000   0.0000000
     0.0000000   0.0000000   0.0000000  |     0.0000000   0.0000000   0.0000000
     0.0000000   0.0000000   0.0000000  |     0.0000000   0.0000000   0.0000000
     0.0000000   0.0000000   0.0000000  |     0.0000000   0.0000000   0.0000000
     0.0000000   0.0000000   0.0000000  |     0.0000000   0.0000000   0.0000000
     0.0000000   0.0000000   0.0000000  |     0.0000000   0.0000000   0.0000000
     0.0000000   0.0000000   0.0000000  |     0.0000000   0.0000000   0.0000000
     0.0000000   0.0000000   0.0000000  |     0.0000000   0.0000000   0.0000000
     0.0000000   0.0000000   0.0000000  |     0.0000000   0.0000000   0.0000000
     0.0000000   0.0000000   0.0000000  |     0.0000000   0.0000000   0.0000000
     0.0000000   0.0000000   0.0000000  |     0.0000000   0.0000000   0.0000000
     0.0000000   0.0000000   0.0000000  |     0.0000000   0.0000000   0.0000000
     0.0000000   0.0000000   0.0000000  |     0.0000000   0.0000000   0.0000000
     0.0000000   0.0000000   0.0000000  |     0.0000000   0.0000000   0.0000000
     0.0000000   0.0000000   0.0000000  |     0.0000000   0.0000000   0.0000000
     0.0000000   0.0000000   0.0000000  |     0.0000000   0.0000000   0.0000000
     0.0000000   0.0000000   0.0000000  |     0.0000000   0.0000000   0.0000000
[...]
                      -2.50000000E-01  3.33333333E-01  0.00000000E+00
                      -3.33333333E-01  4.16666667E-01  0.00000000E+00
                      -4.16666667E-01  5.00000000E-01  0.00000000E+00
                      -3.33333333E-01  5.00000000E-01  8.33333333E-02
                      -2.50000000E-01  5.00000000E-01  1.66666667E-01
                      -8.33333333E-02  0.00000000E+00  0.00000000E+00
                      -2.50000000E-01  0.00000000E+00  0.00000000E+00
                      -4.16666667E-01  0.00000000E+00  0.00000000E+00
              kpt4    -6.25000000E-02 -1.25000000E-01  0.00000000E+00
                      -6.25000000E-02 -2.50000000E-01  0.00000000E+00
                      -1.25000000E-01 -1.87500000E-01  0.00000000E+00
                      -6.25000000E-02 -1.87500000E-01  6.25000000E-02
                      -6.25000000E-02 -3.75000000E-01  0.00000000E+00
                      -1.25000000E-01 -3.12500000E-01  0.00000000E+00
                      -6.25000000E-02 -3.12500000E-01  6.25000000E-02
                      -1.87500000E-01 -2.50000000E-01  0.00000000E+00
                      -1.25000000E-01 -2.50000000E-01  6.25000000E-02
                      -6.25000000E-02 -2.50000000E-01  1.25000000E-01
                      -6.25000000E-02  5.00000000E-01  0.00000000E+00
                      -1.25000000E-01 -4.37500000E-01  0.00000000E+00
                      -6.25000000E-02 -4.37500000E-01  6.25000000E-02
                      -1.87500000E-01 -3.75000000E-01  0.00000000E+00
                      -1.25000000E-01 -3.75000000E-01  6.25000000E-02
                      -6.25000000E-02 -3.75000000E-01  1.25000000E-01
                      -2.50000000E-01 -3.12500000E-01  0.00000000E+00
                      -1.87500000E-01 -3.12500000E-01  6.25000000E-02
                      -1.25000000E-01 -3.12500000E-01  1.25000000E-01
                      -6.25000000E-02 -3.12500000E-01  1.87500000E-01
                      -6.25000000E-02  3.75000000E-01  0.00000000E+00
                      -1.25000000E-01  4.37500000E-01  0.00000000E+00
                      -1.87500000E-01  5.00000000E-01  0.00000000E+00
                      -1.25000000E-01  5.00000000E-01  6.25000000E-02
                      -2.50000000E-01 -4.37500000E-01  0.00000000E+00
                      -1.87500000E-01 -4.37500000E-01  6.25000000E-02
                      -1.25000000E-01 -4.37500000E-01  1.25000000E-01
                      -6.25000000E-02 -4.37500000E-01  1.87500000E-01
                      -3.12500000E-01 -3.75000000E-01  0.00000000E+00
                      -2.50000000E-01 -3.75000000E-01  6.25000000E-02
                      -1.87500000E-01 -3.75000000E-01  1.25000000E-01
                      -1.25000000E-01 -3.75000000E-01  1.87500000E-01
                      -6.25000000E-02 -3.75000000E-01  2.50000000E-01
                      -6.25000000E-02  2.50000000E-01  0.00000000E+00
                      -1.25000000E-01  3.12500000E-01  0.00000000E+00
                      -1.87500000E-01  3.75000000E-01  0.00000000E+00
                      -2.50000000E-01  4.37500000E-01  0.00000000E+00
                      -3.12500000E-01  5.00000000E-01  0.00000000E+00
                      -2.50000000E-01  5.00000000E-01  6.25000000E-02
                      -1.87500000E-01  5.00000000E-01  1.25000000E-01
                      -3.75000000E-01 -4.37500000E-01  0.00000000E+00
                      -3.12500000E-01 -4.37500000E-01  6.25000000E-02
                      -2.50000000E-01 -4.37500000E-01  1.25000000E-01
                      -1.87500000E-01 -4.37500000E-01  1.87500000E-01
                      -1.25000000E-01 -4.37500000E-01  2.50000000E-01
                      -6.25000000E-02 -4.37500000E-01  3.12500000E-01
                      -6.25000000E-02  1.25000000E-01  0.00000000E+00
                      -1.25000000E-01  1.87500000E-01  0.00000000E+00
                      -1.87500000E-01  2.50000000E-01  0.00000000E+00
                      -2.50000000E-01  3.12500000E-01  0.00000000E+00
                       outvar_i_n : Printing only first  50 k-points.
         kptrlatt1       2   -2    2     -2    2    2     -2   -2    2
         kptrlatt2       4   -4    4     -4    4    4     -4   -4    4
         kptrlatt3       6   -6    6     -6    6    6     -6   -6    6
         kptrlatt4       8   -8    8     -8    8    8     -8   -8    8
          kptrlen1     1.52000000E+01
          kptrlen2     3.04000000E+01
          kptrlen3     4.56000000E+01
          kptrlen4     6.08000000E+01
P           mkmem1          1
P           mkmem2          5
P           mkmem3         14
P           mkmem4         30
            natom           1
            nband1          3
            nband2          3
            nband3          3
            nband4          3
           ndtset           4
            ngfft          15      15      15
             nkpt1          2
             nkpt2         10
             nkpt3         28
             nkpt4         60
            nstep          10
             nsym          48
            ntime          10
           ntypat           1
              occ1     2.000029  1.333066  0.000138
                       2.000000  0.000299  0.000000
              occ2     2.000000  0.000000  0.000000
                       2.000001  2.013008  0.000000
                       2.000000  0.001757  0.000000
                       2.000000  0.741378  0.000014
                       2.000000  0.004856  0.000000
                       2.000241  2.108516  0.005003
                       2.000207  0.461977  0.004770
                       2.010352  1.959840  0.003267
                       2.000000  0.000000  0.000000
                       2.000000  1.909876  0.000000
              occ3     2.000000  0.000000  0.000000
                       2.000000  0.000076  0.000000
                       2.000000  0.000000  0.000000
                       2.000000  0.000270  0.000000
                       2.000003  2.002301  0.000000
                       2.000000  0.619504  0.000000
                       2.000000  2.140408  0.000000
                       2.000000  0.000009  0.000000
                       2.000000  0.005221  0.000000
                       2.000000  0.270437  0.000303
                       2.000000  1.204647  0.000000
                       2.000034  2.010794  0.000000
                       2.000003  1.782942  0.000427
                       2.000290  2.037405  0.000013
                       2.000000  0.004192  0.000313
                       2.000000  0.001911  0.001739
                       2.000034  1.350230  0.003674
                       2.009381  2.135193  0.002308
                       2.000000  0.000000  0.000000
                       2.000000  0.002966  0.000001
                       2.000003  1.858287  0.005239
                       2.027794  2.090086  0.288540
                       2.001522  1.485641  0.001306
                       2.007629  0.918288  0.041068
                       2.074312  1.873143  0.084732
                       2.000000  0.000000  0.000000
                       2.000000  0.000858  0.000000
                       2.000000  2.091332  0.000000
              occ4     2.000000  0.000000  0.000000
                       2.000000  0.000040  0.000000
                       2.000000  0.000000  0.000000
                       2.000000  0.000000  0.000000
                       2.000000  0.976470  0.000000
                       2.000000  0.002482  0.000000
                       2.000000  0.002065  0.000000
                       2.000000  0.000000  0.000000
                       2.000000  0.000007  0.000000
                       2.000000  0.001851  0.000000
                       2.000005  2.000918  0.000000
                       2.000000  2.056486  0.000000
                       2.000000  2.050328  0.000000
                       2.000000  0.002995  0.000000
                       2.000000  0.394505  0.000000
                       2.000000  1.911615  0.000000
                       2.000000  0.000000  0.000000
                       2.000000  0.000453  0.000000
                       2.000000  0.004290  0.000008
                       2.000000  0.133700  0.000900
                       2.000000  2.129035  0.000000
                       2.000020  2.002500  0.000000
                       2.000001  2.116147  0.000000
                       2.000073  2.006224  0.000000
                       2.000000  0.025504  0.000014
                       2.000000  1.364176  0.000001
                       2.000005  2.139364  0.000005
                       2.000738  2.027307  0.000286
                       2.000000  0.000144  0.000009
                       2.000000  0.003300  0.000051
                       2.000000  0.009769  0.000250
                       2.000001  0.847794  0.004520
                       2.000257  2.001589  0.000079
                       2.000000  0.003790  0.000000
                       2.000000  0.665436  0.000000
                       2.000001  2.114475  0.000012
                       2.001937  2.051091  0.002442
                       2.000020  0.234191  0.003328
                       2.000241  1.921878  0.005061
                       2.004911  2.081077  0.001598
                       2.000001  0.004156  0.000090
                       2.000005  0.000012  0.005235
                       2.000073  0.143861  0.004684
                       2.002043  1.534537  0.003416
                       2.043962  2.141110  0.047741
                       2.060687  2.079652  0.510945
                       2.000000  0.000000  0.000000
                       2.000000  0.000022  0.000000
                       2.000000  0.001583  0.000021
                       2.000000  1.193125  0.005248
                       prtocc : prtvol=0, do not print more k-points.
           occopt           4
          optcell           1
            rprim      0.0000000000E+00  5.0000000000E-01  5.0000000000E-01
                       5.0000000000E-01  0.0000000000E+00  5.0000000000E-01
                       5.0000000000E-01  5.0000000000E-01  0.0000000000E+00
           shiftk      5.00000000E-01  5.00000000E-01  5.00000000E-01
          spgroup         225
           strten1     2.1366973212E-08  2.1366973212E-08  2.1366973212E-08
                       0.0000000000E+00  0.0000000000E+00  0.0000000000E+00
           strten2     1.4604037490E-09  1.4604037487E-09  1.4604037487E-09
                       0.0000000000E+00  0.0000000000E+00  0.0000000000E+00
           strten3     1.3169080179E-07  1.3169080179E-07  1.3169080179E-07
                       0.0000000000E+00  0.0000000000E+00  0.0000000000E+00
           strten4     1.9929835264E-07  1.9929835264E-07  1.9929835264E-07
                       0.0000000000E+00  0.0000000000E+00  0.0000000000E+00
           symrel      1  0  0   0  1  0   0  0  1      -1  0  0   0 -1  0   0  0 -1
                       0 -1  1   0 -1  0   1 -1  0       0  1 -1   0  1  0  -1  1  0
                      -1  0  0  -1  0  1  -1  1  0       1  0  0   1  0 -1   1 -1  0
                       0  1 -1   1  0 -1   0  0 -1       0 -1  1  -1  0  1   0  0  1
                      -1  0  0  -1  1  0  -1  0  1       1  0  0   1 -1  0   1  0 -1
                       0 -1  1   1 -1  0   0 -1  0       0  1 -1  -1  1  0   0  1  0
                       1  0  0   0  0  1   0  1  0      -1  0  0   0  0 -1   0 -1  0
                       0  1 -1   0  0 -1   1  0 -1       0 -1  1   0  0  1  -1  0  1
                      -1  0  1  -1  1  0  -1  0  0       1  0 -1   1 -1  0   1  0  0
                       0 -1  0   1 -1  0   0 -1  1       0  1  0  -1  1  0   0  1 -1
                       1  0 -1   0  0 -1   0  1 -1      -1  0  1   0  0  1   0 -1  1
                       0  1  0   0  0  1   1  0  0       0 -1  0   0  0 -1  -1  0  0
                       1  0 -1   0  1 -1   0  0 -1      -1  0  1   0 -1  1   0  0  1
                       0 -1  0   0 -1  1   1 -1  0       0  1  0   0  1 -1  -1  1  0
                      -1  0  1  -1  0  0  -1  1  0       1  0 -1   1  0  0   1 -1  0
                       0  1  0   1  0  0   0  0  1       0 -1  0  -1  0  0   0  0 -1
                       0  0 -1   0  1 -1   1  0 -1       0  0  1   0 -1  1  -1  0  1
                       1 -1  0   0 -1  1   0 -1  0      -1  1  0   0  1 -1   0  1  0
                       0  0  1   1  0  0   0  1  0       0  0 -1  -1  0  0   0 -1  0
                      -1  1  0  -1  0  0  -1  0  1       1 -1  0   1  0  0   1  0 -1
                       0  0  1   0  1  0   1  0  0       0  0 -1   0 -1  0  -1  0  0
                       1 -1  0   0 -1  0   0 -1  1      -1  1  0   0  1  0   0  1 -1
                       0  0 -1   1  0 -1   0  1 -1       0  0  1  -1  0  1   0 -1  1
                      -1  1  0  -1  0  1  -1  0  0       1 -1  0   1  0 -1   1  0  0
           toldfe      1.00000000E-06 Hartree
           tsmear      5.00000000E-02 Hartree
            typat      1
              wtk1       0.75000    0.25000
              wtk2       0.09375    0.09375    0.09375    0.18750    0.09375    0.09375
                         0.09375    0.18750    0.03125    0.03125
              wtk3       0.02778    0.02778    0.02778    0.05556    0.02778    0.02778
                         0.05556    0.02778    0.05556    0.05556    0.02778    0.02778
                         0.02778    0.05556    0.02778    0.05556    0.05556    0.05556
                         0.02778    0.02778    0.02778    0.02778    0.02778    0.05556
                         0.05556    0.00926    0.00926    0.00926
              wtk4       0.01172    0.01172    0.01172    0.02344    0.01172    0.01172
                         0.02344    0.01172    0.02344    0.02344    0.01172    0.01172
                         0.02344    0.01172    0.02344    0.02344    0.01172    0.02344
                         0.02344    0.02344    0.01172    0.01172    0.01172    0.02344
                         0.01172    0.02344    0.02344    0.02344    0.01172    0.02344
                         0.02344    0.02344    0.02344    0.01172    0.01172    0.01172
                         0.01172    0.01172    0.02344    0.02344    0.01172    0.02344
                         0.02344    0.02344    0.02344    0.02344    0.01172    0.01172
                         0.01172    0.01172
                       outvars : Printing only first  50 k-points.
            znucl       13.00000

================================================================================
  

================================================================================

 Suggested references for the acknowledgment of ABINIT usage.

 The users of ABINIT have little formal obligations with respect to the ABINIT group
 (those specified in the GNU General Public License, http://www.gnu.org/copyleft/gpl.txt).
 However, it is common practice in the scientific literature,
 to acknowledge the efforts of people that have made the research possible.
 In this spirit, please find below suggested citations of work written by ABINIT developers,
 corresponding to implementations inside of ABINIT that you have used in the present run.
 Note also that it will be of great value to readers of publications presenting these results,
 to read papers enabling them to understand the theoretical formalism and details
 of the ABINIT implementation.
 For information on why they are suggested, see also https://docs.abinit.org/theory/acknowledgments.
-
- [1] Recent developments in the ABINIT software package.
- Computer Phys. Comm. 205, 106 (2016).
- X.Gonze, F.Jollet, F.Abreu Araujo, D.Adams, B.Amadon, T.Applencourt,
- C.Audouze, J.-M.Beuken, J.Bieder, A.Bokhanchuk, E.Bousquet, F.Bruneval
- D.Caliste, M.Cote, F.Dahm, F.Da Pieve, M.Delaveau, M.Di Gennaro,
- B.Dorado, C.Espejo, G.Geneste, L.Genovese, A.Gerossier, M.Giantomassi,
- Y.Gillet, D.R.Hamann, L.He, G.Jomard, J.Laflamme Janssen, S.Le Roux,
- A.Levitt, A.Lherbier, F.Liu, I.Lukacevic, A.Martin, C.Martins,
- M.J.T.Oliveira, S.Ponce, Y.Pouillon, T.Rangel, G.-M.Rignanese,
- A.H.Romero, B.Rousseau, O.Rubel, A.A.Shukri, M.Stankovski, M.Torrent,
- M.J.Van Setten, B.Van Troeye, M.J.Verstraete, D.Waroquier, J.Wiktor,
- B.Xu, A.Zhou, J.W.Zwanziger.
- Comment : the fourth generic paper describing the ABINIT project.
- Note that a version of this paper, that is not formatted for Computer Phys. Comm. 
- is available at https://www.abinit.org/about/ABINIT16.pdf .
- The licence allows the authors to put it on the Web.
- DOI and bibtex : see https://docs.abinit.org/theory/bibliography/#gonze2016
-
- [2] Ab initio pseudopotentials for electronic structure calculations of poly-atomic systems, 
- using density-functional theory.
- M. Fuchs, M. Scheffler, Comput. Phys. Commun. 119, 67 (1999).
- Comment : Some pseudopotential generated using the FHI code were used.
- DOI and bibtex : see https://docs.abinit.org/theory/bibliography/#fuchs1999
-
- [3] ABINIT : First-principles approach of materials and nanosystem properties.
- Computer Phys. Comm. 180, 2582-2615 (2009).
- X. Gonze, B. Amadon, P.-M. Anglade, J.-M. Beuken, F. Bottin, P. Boulanger, F. Bruneval,
- D. Caliste, R. Caracas, M. Cote, T. Deutsch, L. Genovese, Ph. Ghosez, M. Giantomassi
- S. Goedecker, D.R. Hamann, P. Hermet, F. Jollet, G. Jomard, S. Leroux, M. Mancini, S. Mazevet,
- M.J.T. Oliveira, G. Onida, Y. Pouillon, T. Rangel, G.-M. Rignanese, D. Sangalli, R. Shaltaf,
- M. Torrent, M.J. Verstraete, G. Zerah, J.W. Zwanziger
- Comment : the third generic paper describing the ABINIT project.
- Note that a version of this paper, that is not formatted for Computer Phys. Comm. 
- is available at https://www.abinit.org/about/ABINIT_CPC_v10.pdf .
- The licence allows the authors to put it on the Web.
- DOI and bibtex : see https://docs.abinit.org/theory/bibliography/#gonze2009
-
- [4] A brief introduction to the ABINIT software package.
- Z. Kristallogr. 220, 558-562 (2005).
- X. Gonze, G.-M. Rignanese, M. Verstraete, J.-M. Beuken, Y. Pouillon, R. Caracas, F. Jollet,
- M. Torrent, G. Zerah, M. Mikami, Ph. Ghosez, M. Veithen, J.-Y. Raty, V. Olevano, F. Bruneval,
- L. Reining, R. Godby, G. Onida, D.R. Hamann, and D.C. Allan.
- Comment : the second generic paper describing the ABINIT project. Note that this paper
- should be cited especially if you are using the GW part of ABINIT, as several authors
- of this part are not in the list of authors of the first or third paper.
- The .pdf of the latter paper is available at https://www.abinit.org/about/zfk_0505-06_558-562.pdf.
- Note that it should not redistributed (Copyright by Oldenburg Wissenshaftverlag,
- the licence allows the authors to put it on the Web).
- DOI and bibtex : see https://docs.abinit.org/theory/bibliography/#gonze2005
-
- And optionally:
-
- [5] First-principles computation of material properties : the ABINIT software project. 
- X. Gonze, J.-M. Beuken, R. Caracas, F. Detraux, M. Fuchs, G.-M. Rignanese, L. Sindic,
- M. Verstraete, G. Zerah, F. Jollet, M. Torrent, A. Roy, M. Mikami, Ph. Ghosez, J.-Y. Raty, D.C. Allan.
- Computational Materials Science 25, 478-492 (2002). http://dx.doi.org/10.1016/S0927-0256(02)00325-7
- Comment : the original paper describing the ABINIT project.
- DOI and bibtex : see https://docs.abinit.org/theory/bibliography/#gonze2002
  Asked to delete not existent file: tbase4_2_STATUS
 Proc.   0 individual time (sec): cpu=          5.5  wall=          3.4

 Calculation completed.
.Delivered   0 WARNINGs and  21 COMMENTs to log file.

--- !FinalSummary
program: abinit
version: 8.10.3
start_datetime: Fri Oct 18 13:52:01 2019
end_datetime: Fri Oct 18 13:52:04 2019
overall_cpu_time:          11.1
overall_wall_time:           6.9
exit_requested_by_user: no 
timelimit: 0
pseudos: 
    Al  : 45177dc68580e70ffd690f1e65e9b174
usepaw: 0
mpi_procs: 2
omp_threads: 2
num_warnings: 0
num_comments: 21
...
