  ABINIT 8.11.13
  
  Give name for formatted input file: 
opt.in
  Give name for formatted output file:
opt.out
  Give root name for generic input files:
opti
  Give root name for generic output files:
opto
  Give root name for generic temporary files:
opt

.Version 8.11.13 of ABINIT 
.(MPI version, prepared for a x86_64_linux_intel14.0 computer) 

.Copyright (C) 1998-2019 ABINIT group . 
 ABINIT comes with ABSOLUTELY NO WARRANTY.
 It is free software, and you are welcome to redistribute it
 under certain conditions (GNU General Public License,
 see ~abinit/COPYING or http://www.gnu.org/copyleft/gpl.txt).

 ABINIT is a project of the Universite Catholique de Louvain,
 Corning Inc. and other collaborators, see ~abinit/doc/developers/contributors.txt .
 Please read https://docs.abinit.org/theory/acknowledgments for suggested
 acknowledgments of the ABINIT effort.
 For more information, see https://www.abinit.org .

.Starting date : Fri 10 Jan 2020.
- ( at 11h50 )
  
 
 ++++++++++++++++++++++++++++++++++++++++++++++++++++++++++++++++++++++++++++++
 
 === Build Information === 
  Version       : 8.11.13
  Build target  : x86_64_linux_intel14.0
  Build date    : 20191206
 
 === Compiler Suite === 
  C compiler       : intel14.0
  C++ compiler     : gnu14.0
  Fortran compiler : intel14.0
  CFLAGS           :  -g -O2
  CXXFLAGS         :  -g -O2 -mtune=native -march=native
  FCFLAGS          :  -g -extend-source -nofpscomp
  FC_LDFLAGS       :    -static-intel -static-libgcc
 
 === Optimizations === 
  Debug level        : basic
  Optimization level : standard
  Architecture       : intel_xeon
 
 === Multicore === 
  Parallel build : yes
  Parallel I/O   : yes
  openMP support : no
  GPU support    : no
 
 === Connectors / Fallbacks === 
  Connectors on : yes
  Fallbacks on  : yes
  DFT flavor    : libxc-fallback
  FFT flavor    : fftw3
  LINALG flavor : mkl
  TIMER flavor  : abinit
  TRIO flavor   : netcdf
 
 === Experimental features === 
  Exports             : no
  GW double-precision : yes
 
 ++++++++++++++++++++++++++++++++++++++++++++++++++++++++++++++++++++++++++++++
 

 ++++++++++++++++++++++++++++++++++++++++++++++++++++++++++++++++++++++++++++++
 Default optimizations:
   -O3


 Optimizations for 43_ptgroups:
   -O0


 ++++++++++++++++++++++++++++++++++++++++++++++++++++++++++++++++++++++++++++++


 ++++++++++++++++++++++++++++++++++++++++++++++++++++++++++++++++++++++++++++++
 CPP options activated during the build:

                  CC_INTEL                   CXX_GNU                  FC_INTEL
 
 HAVE_FC_ALLOCATABLE_DT...             HAVE_FC_ASYNC  HAVE_FC_COMMAND_ARGUMENT
 
        HAVE_FC_CONTIGUOUS           HAVE_FC_CPUTIME             HAVE_FC_ETIME
 
              HAVE_FC_EXIT             HAVE_FC_FLUSH             HAVE_FC_GAMMA
 
            HAVE_FC_GETENV            HAVE_FC_GETPID   HAVE_FC_IEEE_ARITHMETIC
 
   HAVE_FC_IEEE_EXCEPTIONS             HAVE_FC_IOMSG     HAVE_FC_ISO_C_BINDING
 
  HAVE_FC_ISO_FORTRAN_2008        HAVE_FC_LONG_LINES        HAVE_FC_MOVE_ALLOC
 
  HAVE_FC_ON_THE_FLY_SHAPE           HAVE_FC_PRIVATE         HAVE_FC_PROTECTED
 
           HAVE_FC_SHIFTLR         HAVE_FC_STREAM_IO            HAVE_FC_SYSTEM
 
                  HAVE_FFT            HAVE_FFT_FFTW3              HAVE_FFT_MPI
 
           HAVE_FFT_SERIAL               HAVE_GW_DPC        HAVE_LIBPAW_ABINIT
 
      HAVE_LIBTETRA_ABINIT                HAVE_LIBXC               HAVE_LINALG
 
         HAVE_LINALG_AXPBY        HAVE_LINALG_GEMM3M  HAVE_LINALG_MKL_IMATCOPY
 
   HAVE_LINALG_MKL_OMATADD  HAVE_LINALG_MKL_OMATCOPY   HAVE_LINALG_MKL_THREADS
 
        HAVE_LINALG_SERIAL                  HAVE_MPI                 HAVE_MPI2
 
       HAVE_MPI_IALLREDUCE        HAVE_MPI_IALLTOALL       HAVE_MPI_IALLTOALLV
 
           HAVE_MPI_IBCAST         HAVE_MPI_IGATHERV        HAVE_MPI_INTEGER16
 
               HAVE_MPI_IO HAVE_MPI_TYPE_CREATE_S...               HAVE_NETCDF
 
           HAVE_NETCDF_MPI                HAVE_NUMPY             HAVE_OS_LINUX
 
         HAVE_TIMER_ABINIT                  HAVE_XML              USE_MACROAVE
 
 ++++++++++++++++++++++++++++++++++++++++++++++++++++++++++++++++++++++++++++++

- input  file    -> opt.in
- output file    -> opt.out
- root for input  files -> opti
- root for output files -> opto
 
Netcdf library supports MPI-IO
-instrng: 56 lines of input have been read from file opt.in
 

 Please give name of formatted atomic psp file
 For atom type 1, psp file is /CECI/home/ucl/naps/jovbever/.PsP/Si/Si.psp8
  read the values zionpsp=  4.0 , pspcod=   8 , lmax=   2
 
 inpspheads: deduce mpsang = 3, n1xccc = 2501.

======================================================= 
invars1m : enter jdtset= 0
 
 symlatt: the Bravais lattice is cF (face-centered cubic)
  xred   is defined in input file
 ingeo: takes atomic coordinates from input array xred
 
 symlatt: the Bravais lattice is cF (face-centered cubic)
 
 symlatt: the Bravais lattice is cF (face-centered cubic)
 symspgr: spgroup= 227  Fd -3 m   (=Oh^7)
 symspgr: optical characteristics = isotropic
 For input ecut=  6.615000E+00 best grid ngfft=      18      18      18
       max ecut=  7.529346E+00
 
 ==== FFT mesh ====
  FFT mesh divisions ........................    18   18   18
  Augmented FFT divisions ...................    19   19   18
  FFT algorithm .............................   312
  FFT cache size ............................    16
 getmpw: optimal value of mpw= 232
 
 Symmetries : space group Fd -3 m (#227); Bravais cF (face-center cubic)
 
 getdim_nloc : deduce lmnmax  =  18, lnmax  =   6,
                      lmnmaxso=  18, lnmaxso=   6.
memory: analysis of memory needs
================================================================================
 Values of the parameters that define the memory need of the present run
     intxc =       0    ionmov =       2      iscf =       7    lmnmax =       6
     lnmax =       6     mgfft =      18  mpssoang =       3    mqgrid =    3001
     natom =       2  nloc_mem =       1    nspden =       1   nspinor =       1
    nsppol =       1      nsym =      48    n1xccc =    2501    ntypat =       1
    occopt =       1   xclevel =       2
-    mband =           6        mffmem =           1         mkmem =          10
       mpw =         232          nfft =        5832          nkpt =          60
================================================================================
P This job should need less than                       2.849 Mbytes of memory.
  Rough estimation (10% accuracy) of disk space for files :
_ WF disk file :      1.276 Mbytes ; DEN or POT disk file :      0.046 Mbytes.
================================================================================
 
 Biggest array : f_fftgr(disk), with      0.7139 MBytes.
 memana : allocated an array of      0.714 Mbytes, for testing purposes.
 memana: allocated       2.849Mbytes, for testing purposes. 
 The job will continue.
--------------------------------------------------------------------------------
------------- Echo of variables that govern the present computation ------------
--------------------------------------------------------------------------------
-
- outvars: echo of selected default values                                      
-   iomode0 =  0 , fftalg0 =312 , wfoptalg0 =  0
-
- outvars: echo of global parameters not present in the input file              
-  max_nthreads =    0
-
 -outvars: echo values of preprocessed input variables --------
 
 These variables are accessible in NetCDF format (opto_OUT.nc)

            acell      1.0335941857E+01  1.0335941857E+01  1.0335941857E+01 Bohr
              amu      2.80855000E+01
          dilatmx      1.05000000E+00
             ecut      6.00000000E+00 Hartree
           ecutsm      5.00000000E-01 Hartree
-          fftalg         312
           ionmov           2
              ixc          11
              kpt     -6.25000000E-02 -1.25000000E-01  0.00000000E+00
                      -6.25000000E-02 -2.50000000E-01  0.00000000E+00
                      -1.25000000E-01 -1.87500000E-01  0.00000000E+00
                      -6.25000000E-02 -1.87500000E-01  6.25000000E-02
                      -6.25000000E-02 -3.75000000E-01  0.00000000E+00
                      -1.25000000E-01 -3.12500000E-01  0.00000000E+00
                      -6.25000000E-02 -3.12500000E-01  6.25000000E-02
                      -1.87500000E-01 -2.50000000E-01  0.00000000E+00
                      -1.25000000E-01 -2.50000000E-01  6.25000000E-02
                      -6.25000000E-02 -2.50000000E-01  1.25000000E-01
                      -6.25000000E-02  5.00000000E-01  0.00000000E+00
                      -1.25000000E-01 -4.37500000E-01  0.00000000E+00
                      -6.25000000E-02 -4.37500000E-01  6.25000000E-02
                      -1.87500000E-01 -3.75000000E-01  0.00000000E+00
                      -1.25000000E-01 -3.75000000E-01  6.25000000E-02
                      -6.25000000E-02 -3.75000000E-01  1.25000000E-01
                      -2.50000000E-01 -3.12500000E-01  0.00000000E+00
                      -1.87500000E-01 -3.12500000E-01  6.25000000E-02
                      -1.25000000E-01 -3.12500000E-01  1.25000000E-01
                      -6.25000000E-02 -3.12500000E-01  1.87500000E-01
                      -6.25000000E-02  3.75000000E-01  0.00000000E+00
                      -1.25000000E-01  4.37500000E-01  0.00000000E+00
                      -1.87500000E-01  5.00000000E-01  0.00000000E+00
                      -1.25000000E-01  5.00000000E-01  6.25000000E-02
                      -2.50000000E-01 -4.37500000E-01  0.00000000E+00
                      -1.87500000E-01 -4.37500000E-01  6.25000000E-02
                      -1.25000000E-01 -4.37500000E-01  1.25000000E-01
                      -6.25000000E-02 -4.37500000E-01  1.87500000E-01
                      -3.12500000E-01 -3.75000000E-01  0.00000000E+00
                      -2.50000000E-01 -3.75000000E-01  6.25000000E-02
                      -1.87500000E-01 -3.75000000E-01  1.25000000E-01
                      -1.25000000E-01 -3.75000000E-01  1.87500000E-01
                      -6.25000000E-02 -3.75000000E-01  2.50000000E-01
                      -6.25000000E-02  2.50000000E-01  0.00000000E+00
                      -1.25000000E-01  3.12500000E-01  0.00000000E+00
                      -1.87500000E-01  3.75000000E-01  0.00000000E+00
                      -2.50000000E-01  4.37500000E-01  0.00000000E+00
                      -3.12500000E-01  5.00000000E-01  0.00000000E+00
                      -2.50000000E-01  5.00000000E-01  6.25000000E-02
                      -1.87500000E-01  5.00000000E-01  1.25000000E-01
                      -3.75000000E-01 -4.37500000E-01  0.00000000E+00
                      -3.12500000E-01 -4.37500000E-01  6.25000000E-02
                      -2.50000000E-01 -4.37500000E-01  1.25000000E-01
                      -1.87500000E-01 -4.37500000E-01  1.87500000E-01
                      -1.25000000E-01 -4.37500000E-01  2.50000000E-01
                      -6.25000000E-02 -4.37500000E-01  3.12500000E-01
                      -6.25000000E-02  1.25000000E-01  0.00000000E+00
                      -1.25000000E-01  1.87500000E-01  0.00000000E+00
                      -1.87500000E-01  2.50000000E-01  0.00000000E+00
                      -2.50000000E-01  3.12500000E-01  0.00000000E+00
                       outvar_i_n : Printing only first  50 k-points.
         kptrlatt        8   -8    8     -8    8    8     -8   -8    8
          kptrlen      8.26875349E+01
P           mkmem          10
            natom           2
            nband           6
            ngfft          18      18      18
             nkpt          60
             nsym          48
            ntime          15
           ntypat           1
              occ      2.000000  2.000000  2.000000  2.000000  0.000000  0.000000
          optcell           2
            rprim      5.0000000000E-01  5.0000000000E-01  0.0000000000E+00
                       0.0000000000E+00  5.0000000000E-01  5.0000000000E-01
                       5.0000000000E-01  0.0000000000E+00  5.0000000000E-01
           shiftk      5.00000000E-01  5.00000000E-01  5.00000000E-01
          spgroup         227
           symrel      1  0  0   0  1  0   0  0  1      -1  0  0   0 -1  0   0  0 -1
                       0 -1  1   0 -1  0   1 -1  0       0  1 -1   0  1  0  -1  1  0
                      -1  0  0  -1  0  1  -1  1  0       1  0  0   1  0 -1   1 -1  0
                       0  1 -1   1  0 -1   0  0 -1       0 -1  1  -1  0  1   0  0  1
                      -1  0  0  -1  1  0  -1  0  1       1  0  0   1 -1  0   1  0 -1
                       0 -1  1   1 -1  0   0 -1  0       0  1 -1  -1  1  0   0  1  0
                       1  0  0   0  0  1   0  1  0      -1  0  0   0  0 -1   0 -1  0
                       0  1 -1   0  0 -1   1  0 -1       0 -1  1   0  0  1  -1  0  1
                      -1  0  1  -1  1  0  -1  0  0       1  0 -1   1 -1  0   1  0  0
                       0 -1  0   1 -1  0   0 -1  1       0  1  0  -1  1  0   0  1 -1
                       1  0 -1   0  0 -1   0  1 -1      -1  0  1   0  0  1   0 -1  1
                       0  1  0   0  0  1   1  0  0       0 -1  0   0  0 -1  -1  0  0
                       1  0 -1   0  1 -1   0  0 -1      -1  0  1   0 -1  1   0  0  1
                       0 -1  0   0 -1  1   1 -1  0       0  1  0   0  1 -1  -1  1  0
                      -1  0  1  -1  0  0  -1  1  0       1  0 -1   1  0  0   1 -1  0
                       0  1  0   1  0  0   0  0  1       0 -1  0  -1  0  0   0  0 -1
                       0  0 -1   0  1 -1   1  0 -1       0  0  1   0 -1  1  -1  0  1
                       1 -1  0   0 -1  1   0 -1  0      -1  1  0   0  1 -1   0  1  0
                       0  0  1   1  0  0   0  1  0       0  0 -1  -1  0  0   0 -1  0
                      -1  1  0  -1  0  0  -1  0  1       1 -1  0   1  0  0   1  0 -1
                       0  0  1   0  1  0   1  0  0       0  0 -1   0 -1  0  -1  0  0
                       1 -1  0   0 -1  0   0 -1  1      -1  1  0   0  1  0   0  1 -1
                       0  0 -1   1  0 -1   0  1 -1       0  0  1  -1  0  1   0 -1  1
                      -1  1  0  -1  0  1  -1  0  0       1 -1  0   1  0 -1   1  0  0
            tnons      0.0000000  0.0000000  0.0000000     0.2500000  0.2500000  0.2500000
                       0.0000000  0.0000000  0.0000000     0.2500000  0.2500000  0.2500000
                       0.0000000  0.0000000  0.0000000     0.2500000  0.2500000  0.2500000
                       0.0000000  0.0000000  0.0000000     0.2500000  0.2500000  0.2500000
                       0.0000000  0.0000000  0.0000000     0.2500000  0.2500000  0.2500000
                       0.0000000  0.0000000  0.0000000     0.2500000  0.2500000  0.2500000
                       0.0000000  0.0000000  0.0000000     0.2500000  0.2500000  0.2500000
                       0.0000000  0.0000000  0.0000000     0.2500000  0.2500000  0.2500000
                       0.0000000  0.0000000  0.0000000     0.2500000  0.2500000  0.2500000
                       0.0000000  0.0000000  0.0000000     0.2500000  0.2500000  0.2500000
                       0.0000000  0.0000000  0.0000000     0.2500000  0.2500000  0.2500000
                       0.0000000  0.0000000  0.0000000     0.2500000  0.2500000  0.2500000
                       0.0000000  0.0000000  0.0000000     0.2500000  0.2500000  0.2500000
                       0.0000000  0.0000000  0.0000000     0.2500000  0.2500000  0.2500000
                       0.0000000  0.0000000  0.0000000     0.2500000  0.2500000  0.2500000
                       0.0000000  0.0000000  0.0000000     0.2500000  0.2500000  0.2500000
                       0.0000000  0.0000000  0.0000000     0.2500000  0.2500000  0.2500000
                       0.0000000  0.0000000  0.0000000     0.2500000  0.2500000  0.2500000
                       0.0000000  0.0000000  0.0000000     0.2500000  0.2500000  0.2500000
                       0.0000000  0.0000000  0.0000000     0.2500000  0.2500000  0.2500000
                       0.0000000  0.0000000  0.0000000     0.2500000  0.2500000  0.2500000
                       0.0000000  0.0000000  0.0000000     0.2500000  0.2500000  0.2500000
                       0.0000000  0.0000000  0.0000000     0.2500000  0.2500000  0.2500000
                       0.0000000  0.0000000  0.0000000     0.2500000  0.2500000  0.2500000
           tolmxf      1.00000000E-08
           tolvrs      1.00000000E-10
            typat      1  1
              wtk        0.01172    0.01172    0.01172    0.02344    0.01172    0.01172
                         0.02344    0.01172    0.02344    0.02344    0.01172    0.01172
                         0.02344    0.01172    0.02344    0.02344    0.01172    0.02344
                         0.02344    0.02344    0.01172    0.01172    0.01172    0.02344
                         0.01172    0.02344    0.02344    0.02344    0.01172    0.02344
                         0.02344    0.02344    0.02344    0.01172    0.01172    0.01172
                         0.01172    0.01172    0.02344    0.02344    0.01172    0.02344
                         0.02344    0.02344    0.02344    0.02344    0.01172    0.01172
                         0.01172    0.01172
                       outvars : Printing only first  50 k-points.
           xangst      0.0000000000E+00  0.0000000000E+00  0.0000000000E+00
                       1.3673862150E+00  1.3673862150E+00  1.3673862150E+00
            xcart      0.0000000000E+00  0.0000000000E+00  0.0000000000E+00
                       2.5839854642E+00  2.5839854642E+00  2.5839854642E+00
             xred      0.0000000000E+00  0.0000000000E+00  0.0000000000E+00
                       2.5000000000E-01  2.5000000000E-01  2.5000000000E-01
            znucl       14.00000
 
================================================================================
 
 chkinp: Checking input parameters for consistency.
 DATA TYPE INFORMATION: 
 REAL:      Data type name: REAL(DP) 
            Kind value:      8
            Precision:      15
            Smallest nonnegligible quantity relative to 1:  0.22204460E-15
            Smallest positive number:                       0.22250739-307
            Largest representable number:                   0.17976931+309
 INTEGER:   Data type name: INTEGER(default) 
            Kind value: 4
            Bit size:   32
            Largest representable number: 2147483647
 LOGICAL:   Data type name: LOGICAL 
            Kind value: 4
 CHARACTER: Data type name: CHARACTER             Kind value: 1

  ==== OpenMP parallelism is OFF ====
 
  ==== Using MPI-2 specifications ==== 
  MPI-IO support is ON
  xmpi_tag_ub ................   1073741824
  xmpi_bsize_ch ..............            1
  xmpi_bsize_int .............            4
  xmpi_bsize_sp ..............            4
  xmpi_bsize_dp ..............            8
  xmpi_bsize_spc .............            8
  xmpi_bsize_dpc .............           16
  xmpio_bsize_frm ............            4
  xmpi_address_kind ..........            8
  xmpi_offset_kind ...........            8
  MPI_WTICK ..................   1.000000000000000E-006
 
================================================================================
== DATASET  1 ==================================================================
-   nproc =    6
 
 
--- !COMMENT
src_file: m_xgScalapack.F90
src_line: 237
message: |
    xgScalapack in auto mode
...
 
 
 getdim_nloc : deduce lmnmax  =  18, lnmax  =   6,
                      lmnmaxso=  18, lnmaxso=   6.
 Exchange-correlation functional for the present dataset will be:
  GGA: Perdew-Burke-Ernzerhof functional - ixc=11
 Citation for XC functional:
  J.P.Perdew, K.Burke, M.Ernzerhof, PRL 77, 3865 (1996)
 
 Unit cell volume ucvol=  2.7605154E+02 bohr^3
 Angles (23,13,12)=  6.00000000E+01  6.00000000E+01  6.00000000E+01 degrees
 
 getcut: wavevector=  0.0000  0.0000  0.0000  ngfft=  18  18  18
         ecut(hartree)=      6.615   => boxcut(ratio)=   2.13375
- pspini: atom type   1  psp file is /CECI/home/ucl/naps/jovbever/.PsP/Si/Si.psp8
- pspatm: opening atomic psp file    /CECI/home/ucl/naps/jovbever/.PsP/Si/Si.psp8
- Si    ONCVPSP-3.2.3.1  r_core=   1.60303   1.72197   1.91712
- 14.00000   4.00000    170510                znucl, zion, pspdat
    8   11    2    4       600   0.00000      pspcod,pspxc,lmax,lloc,mmax,r2well
    5.99000000000000    4.00000000000000    0.00000000000000   rchrg,fchrg,qchrg
     nproj     2     2     2
     extension_switch     1
  valence charge integrates to:    3.95328304696650     
  pspatm : epsatm=    9.34321699
         --- l  ekb(1:nproj) -->
             0    5.168965    0.829883
             1    2.571282    0.578307
             2   -2.427311   -0.488097
 pspatm: atomic psp has been read  and splines computed
 
   1.49491472E+02                                ecore*ucvol(ha*bohr**3)
 ==== Info on pseudopotentials ====
  Norm-conserving pseudopotentials
  Number of pseudopotentials ..    1
  Number of types of atoms   ..    1
  Scalar calculation (no spin-orbit term)
  Nonlocal part applied using Legendre polynomials
  Max number of non-local projectors over l and type   2
  Highest angular momentum +1 .......   3
  Max number of (l,n)   components ..   6
  Max number of (l,m,n) components ..   6
 
 Pseudo-Core Charge Info: 
   Number of radial points for pseudo-core charge .. 2501
   XC core-correction treatment (optnlxccc) ........    1
   Radius for pseudo-core charge for each type ..... 
 
  - Atom type    1 has pseudo-core radius ..  5.9900
 
 Info on the Q-grid used for form factors in spline form: 
   Number of q-points for radial functions ffspl ..   3001
   Number of q-points for vlspl ...................   3001
   vloc is computed in Reciprocal Space
   model core charge treated in real-space
 
  XC functional for type 1 is 11
  Pseudo valence available: yes
 
 wfconv:     6 bands initialized randomly with npw=   230, for ikpt=     1
 wfconv:     6 bands initialized randomly with npw=   224, for ikpt=     2
 wfconv:     6 bands initialized randomly with npw=   223, for ikpt=     3
 wfconv:     6 bands initialized randomly with npw=   222, for ikpt=     4
 wfconv:     6 bands initialized randomly with npw=   228, for ikpt=     5
 wfconv:     6 bands initialized randomly with npw=   226, for ikpt=     6
 wfconv:     6 bands initialized randomly with npw=   221, for ikpt=     7
 wfconv:     6 bands initialized randomly with npw=   224, for ikpt=     8
 wfconv:     6 bands initialized randomly with npw=   222, for ikpt=     9
 wfconv:     6 bands initialized randomly with npw=   223, for ikpt=    10
_setup2: Arith. and geom. avg. npw (full set) are     224.313     224.296
 initro: for itypat=  1, take pseudo charge density from pp file
 
================================================================================
 
=== [ionmov= 2] Broyden-Fletcher-Goldfard-Shanno method (forces)            
================================================================================
 
--- Iteration: ( 1/15) Internal Cycle: (1/1)
--------------------------------------------------------------------------------
 
 Cartesian coordinates (xcart) [bohr]
  0.00000000000000E+00  0.00000000000000E+00  0.00000000000000E+00
  2.58398546423309E+00  2.58398546423309E+00  2.58398546423309E+00
 Reduced coordinates (xred)
  0.00000000000000E+00  0.00000000000000E+00  0.00000000000000E+00
  2.50000000000000E-01  2.50000000000000E-01  2.50000000000000E-01
 Scale of Primitive Cell (acell) [bohr]
  1.03359418569323E+01  1.03359418569323E+01  1.03359418569323E+01
 Real space primitive translations (rprimd) [bohr]
  5.16797092846617E+00  5.16797092846617E+00  0.00000000000000E+00
  0.00000000000000E+00  5.16797092846617E+00  5.16797092846617E+00
  5.16797092846617E+00  0.00000000000000E+00  5.16797092846617E+00
 Unitary Cell Volume (ucvol) [Bohr^3]=  2.76051544595982E+02
 Angles (23,13,12)= [degrees]
  6.00000000000000E+01  6.00000000000000E+01  6.00000000000000E+01
 Lengths [Bohr]
  7.30861457698674E+00  7.30861457698674E+00  7.30861457698674E+00
 
---SELF-CONSISTENT-FIELD CONVERGENCE--------------------------------------------
 
 getcut: wavevector=  0.0000  0.0000  0.0000  ngfft=  18  18  18
         ecut(hartree)=      6.000   => boxcut(ratio)=   2.24044
 
 getcut : COMMENT -
  Note that boxcut > 2.2 ; recall that boxcut=Gcut(box)/Gcut(sphere) = 2
  is sufficient for exact treatment of convolution.
  Such a large boxcut is a waste : you could raise ecut
  e.g. ecut=    7.529346 Hartrees makes boxcut=2
 
 
 ITER STEP NUMBER     1
 vtorho: nnsclo_now=2, note that nnsclo,dbl_nnsclo,istep=0 0 1
 Total charge density [el/Bohr^3]
      Maximum=    8.9053E-02  at reduced coord.    0.1111    0.1111    0.6667
      Minimum=    2.8089E-03  at reduced coord.    0.5000    0.5000    0.5000
   Integrated=    8.0000E+00
 ETOT  1  -8.4388259187252    -8.439E+00 1.063E-02 1.052E+00
 scprqt: <Vxc>= -3.3651819E-01 hartree
 
 Simple mixing update:
  residual square of the potential:   0.486622906663990
 scfcv_core: previous iteration took  0.60 [s]
 
 ITER STEP NUMBER     2
 vtorho: nnsclo_now=2, note that nnsclo,dbl_nnsclo,istep=0 0 2
 Total charge density [el/Bohr^3]
      Maximum=    8.5830E-02  at reduced coord.    0.1111    0.1111    0.6667
      Minimum=    2.9950E-03  at reduced coord.    0.5000    0.5000    0.5000
   Integrated=    8.0000E+00
 ETOT  2  -8.4409296103869    -2.104E-03 2.669E-04 2.348E-02
 scprqt: <Vxc>= -3.3828345E-01 hartree
 
 Pulay update with  1 previous iterations:
 mixing of old trial potential: alpha(m:m-4)=   1.12     -0.124
 scfcv_core: previous iteration took  0.53 [s]
 
 ITER STEP NUMBER     3
 vtorho: nnsclo_now=1, note that nnsclo,dbl_nnsclo,istep=0 0 3
 Total charge density [el/Bohr^3]
      Maximum=    8.5436E-02  at reduced coord.    0.1111    0.1111    0.6667
      Minimum=    3.0281E-03  at reduced coord.    0.5000    0.5000    0.5000
   Integrated=    8.0000E+00
 ETOT  3  -8.4409559762518    -2.637E-05 3.732E-04 5.138E-04
 scprqt: <Vxc>= -3.3856428E-01 hartree
 
 Pulay update with  2 previous iterations:
 mixing of old trial potential: alpha(m:m-4)=   1.21     -0.231      0.189E-01
 scfcv_core: previous iteration took  0.35 [s]
 
 ITER STEP NUMBER     4
 vtorho: nnsclo_now=1, note that nnsclo,dbl_nnsclo,istep=0 0 4
 Total charge density [el/Bohr^3]
      Maximum=    8.5418E-02  at reduced coord.    0.1111    0.1111    0.6667
      Minimum=    3.0337E-03  at reduced coord.    0.5000    0.5000    0.5000
   Integrated=    8.0000E+00
 ETOT  4  -8.4409563106720    -3.344E-07 3.165E-04 2.351E-05
 scprqt: <Vxc>= -3.3859789E-01 hartree
 
 Pulay update with  3 previous iterations:
 mixing of old trial potential: alpha(m:m-4)=   1.33     -0.379      0.486E-01 -0.409E-02
 scfcv_core: previous iteration took  0.32 [s]
 
 ITER STEP NUMBER     5
 vtorho: nnsclo_now=1, note that nnsclo,dbl_nnsclo,istep=0 0 5
 Total charge density [el/Bohr^3]
      Maximum=    8.5416E-02  at reduced coord.    0.1111    0.1111    0.6667
      Minimum=    3.0354E-03  at reduced coord.    0.5000    0.5000    0.5000
   Integrated=    8.0000E+00
 ETOT  5  -8.4409563217079    -1.104E-08 1.409E-04 4.884E-07
 scprqt: <Vxc>= -3.3860490E-01 hartree
 
 Pulay update with  4 previous iterations:
 mixing of old trial potential: alpha(m:m-4)=   1.31     -0.391      0.880E-01 -0.107E-01  0.859E-03
 scfcv_core: previous iteration took  0.31 [s]
 
 ITER STEP NUMBER     6
 vtorho: nnsclo_now=1, note that nnsclo,dbl_nnsclo,istep=0 0 6
 Total charge density [el/Bohr^3]
      Maximum=    8.5415E-02  at reduced coord.    0.1111    0.1111    0.6667
      Minimum=    3.0357E-03  at reduced coord.    0.5000    0.5000    0.5000
   Integrated=    8.0000E+00
 ETOT  6  -8.4409563218759    -1.680E-10 7.560E-05 2.587E-09
 scprqt: <Vxc>= -3.3860578E-01 hartree
 
 Pulay update with  5 previous iterations:
 mixing of old trial potential: alpha(m:m-4)=   1.19     -0.235      0.596E-01 -0.134E-01  0.157E-02
 scfcv_core: previous iteration took  0.30 [s]
 
 ITER STEP NUMBER     7
 vtorho: nnsclo_now=1, note that nnsclo,dbl_nnsclo,istep=0 0 7
 Total charge density [el/Bohr^3]
      Maximum=    8.5415E-02  at reduced coord.    0.1111    0.1111    0.6667
      Minimum=    3.0357E-03  at reduced coord.    0.5000    0.5000    0.5000
   Integrated=    8.0000E+00
 ETOT  7  -8.4409563218764    -4.921E-13 3.116E-05 1.888E-11
 scprqt: <Vxc>= -3.3860581E-01 hartree
 
 At SCF step    7       vres2   =  1.89E-11 < tolvrs=  1.00E-10 =>converged.
 
 Cartesian components of stress tensor (hartree/bohr^3)
  sigma(1 1)= -2.34700172E-05  sigma(3 2)=  0.00000000E+00
  sigma(2 2)= -2.34700172E-05  sigma(3 1)=  0.00000000E+00
  sigma(3 3)= -2.34700172E-05  sigma(2 1)=  0.00000000E+00
 
 
   fftdatar_write: About to write data to: opto_TIM1_DEN with iomode: IO_MODE_FORTRAN
 IO operation completed. cpu:  0.00 [s] , wall:  0.01 [s]
- Creating HDf5 file with MPI-IO support: opto_GSR.nc
 Write iteration in HIST netCDF file
 
---OUTPUT-----------------------------------------------------------------------
 
 Cartesian coordinates (xcart) [bohr]
  0.00000000000000E+00  0.00000000000000E+00  0.00000000000000E+00
  2.58398546423309E+00  2.58398546423309E+00  2.58398546423309E+00
 Reduced coordinates (xred)
  0.00000000000000E+00  0.00000000000000E+00  0.00000000000000E+00
  2.50000000000000E-01  2.50000000000000E-01  2.50000000000000E-01
 Cartesian forces (fcart) [Ha/bohr]; max,rms= 6.51282E-30 5.31770E-30 (free atoms)
  0.00000000000000E+00 -6.51282016778283E-30  6.51282016778283E-30
  0.00000000000000E+00  6.51282016778283E-30 -6.51282016778283E-30
 Reduced forces (fred)
  3.36580652894298E-29  0.00000000000000E+00 -3.36580652894298E-29
 -3.36580652894298E-29  0.00000000000000E+00  3.36580652894298E-29
 Scale of Primitive Cell (acell) [bohr]
  1.03359418569323E+01  1.03359418569323E+01  1.03359418569323E+01
 Real space primitive translations (rprimd) [bohr]
  5.16797092846617E+00  5.16797092846617E+00  0.00000000000000E+00
  0.00000000000000E+00  5.16797092846617E+00  5.16797092846617E+00
  5.16797092846617E+00  0.00000000000000E+00  5.16797092846617E+00
 Unitary Cell Volume (ucvol) [Bohr^3]=  2.76051544595982E+02
 Angles (23,13,12)= [degrees]
  6.00000000000000E+01  6.00000000000000E+01  6.00000000000000E+01
 Lengths [Bohr]
  7.30861457698674E+00  7.30861457698674E+00  7.30861457698674E+00
 Stress tensor in cartesian coordinates (strten) [Ha/bohr^3]
 -2.34700172350153E-05  0.00000000000000E+00  0.00000000000000E+00
  0.00000000000000E+00 -2.34700172350158E-05  0.00000000000000E+00
  0.00000000000000E+00  0.00000000000000E+00 -2.34700172350149E-05
 Total energy (etotal) [Ha]= -8.44095632187640E+00
 fconv : at Broyd/MD step   1, gradients have not converged yet. 
  max grad (force/stress) = 2.3470E-03 > tolmxf= 1.0000E-08 ha/bohr (free atoms)
 
Inverse hessian has been initialized.
 EXIT:           1           1
 mover: previous time step took  3.20 [s]
 
--- Iteration: ( 2/15) Internal Cycle: (1/1)
--------------------------------------------------------------------------------
 
 Cartesian coordinates (xcart) [bohr]
  0.00000000000000E+00 -6.51740584783041E-30  6.51740584783041E-30
  2.58580484973450E+00  2.58580484973450E+00  2.58580484973450E+00
 Reduced coordinates (xred)
 -1.26022770985591E-30  0.00000000000000E+00  1.26022770985591E-30
  2.50000000000000E-01  2.50000000000000E-01  2.50000000000000E-01
 Scale of Primitive Cell (acell) [bohr]
  7.31376057628931E+00  7.31376057628931E+00  7.31376057628931E+00
 Real space primitive translations (rprimd) [bohr]
  5.17160969946901E+00  5.17160969946901E+00  0.00000000000000E+00
  0.00000000000000E+00  5.17160969946901E+00  5.17160969946901E+00
  5.17160969946901E+00  0.00000000000000E+00  5.17160969946901E+00
 Unitary Cell Volume (ucvol) [Bohr^3]=  2.76635059362091E+02
 Angles (23,13,12)= [degrees]
  6.00000000000000E+01  6.00000000000000E+01  6.00000000000000E+01
 Lengths [Bohr]
  7.31376057628931E+00  7.31376057628931E+00  7.31376057628931E+00
 
---SELF-CONSISTENT-FIELD CONVERGENCE--------------------------------------------
 
 getcut: wavevector=  0.0000  0.0000  0.0000  ngfft=  18  18  18
         ecut(hartree)=      6.000   => boxcut(ratio)=   2.23886
 
 getcut : COMMENT -
  Note that boxcut > 2.2 ; recall that boxcut=Gcut(box)/Gcut(sphere) = 2
  is sufficient for exact treatment of convolution.
  Such a large boxcut is a waste : you could raise ecut
  e.g. ecut=    7.518754 Hartrees makes boxcut=2
 
 
 ITER STEP NUMBER     1
 vtorho: nnsclo_now=2, note that nnsclo,dbl_nnsclo,istep=0 0 1
 Total charge density [el/Bohr^3]
      Maximum=    8.5180E-02  at reduced coord.    0.1111    0.1111    0.6667
      Minimum=    3.0297E-03  at reduced coord.    0.5000    0.5000    0.5000
   Integrated=    8.0000E+00
 ETOT  1  -8.4409675318512    -8.441E+00 9.936E-05 5.867E-04
 scprqt: <Vxc>= -3.3836562E-01 hartree
 
 Simple mixing update:
  residual square of the potential:   1.929967998864993E-004
 scfcv_core: previous iteration took  0.59 [s]
 
 ITER STEP NUMBER     2
 vtorho: nnsclo_now=2, note that nnsclo,dbl_nnsclo,istep=0 0 2
 Total charge density [el/Bohr^3]
      Maximum=    8.5231E-02  at reduced coord.    0.1111    0.1111    0.6667
      Minimum=    3.0239E-03  at reduced coord.    0.5000    0.5000    0.5000
   Integrated=    8.0000E+00
 ETOT  2  -8.4409681072893    -5.754E-07 9.899E-06 4.964E-05
 scprqt: <Vxc>= -3.3832777E-01 hartree
 
 Pulay update with  1 previous iterations:
 mixing of old trial potential: alpha(m:m-4)=   1.34     -0.337
 scfcv_core: previous iteration took  0.62 [s]
 
 ITER STEP NUMBER     3
 vtorho: nnsclo_now=1, note that nnsclo,dbl_nnsclo,istep=0 0 3
 Total charge density [el/Bohr^3]
      Maximum=    8.5242E-02  at reduced coord.    0.1111    0.1111    0.6667
      Minimum=    3.0216E-03  at reduced coord.    0.5000    0.5000    0.5000
   Integrated=    8.0000E+00
 ETOT  3  -8.4409681440689    -3.678E-08 1.463E-06 1.229E-06
 scprqt: <Vxc>= -3.3831528E-01 hartree
 
 Pulay update with  2 previous iterations:
 mixing of old trial potential: alpha(m:m-4)=   1.37     -0.447      0.791E-01
 scfcv_core: previous iteration took  0.40 [s]
 
 ITER STEP NUMBER     4
 vtorho: nnsclo_now=1, note that nnsclo,dbl_nnsclo,istep=0 0 4
 Total charge density [el/Bohr^3]
      Maximum=    8.5242E-02  at reduced coord.    0.1111    0.1111    0.6667
      Minimum=    3.0211E-03  at reduced coord.    0.5000    0.5000    0.5000
   Integrated=    8.0000E+00
 ETOT  4  -8.4409681445765    -5.076E-10 9.786E-07 5.546E-09
 scprqt: <Vxc>= -3.3831371E-01 hartree
 
 Pulay update with  3 previous iterations:
 mixing of old trial potential: alpha(m:m-4)=   1.22     -0.280      0.786E-01 -0.137E-01
 scfcv_core: previous iteration took  0.30 [s]
 
 ITER STEP NUMBER     5
 vtorho: nnsclo_now=1, note that nnsclo,dbl_nnsclo,istep=0 0 5
 Total charge density [el/Bohr^3]
      Maximum=    8.5242E-02  at reduced coord.    0.1111    0.1111    0.6667
      Minimum=    3.0211E-03  at reduced coord.    0.5000    0.5000    0.5000
   Integrated=    8.0000E+00
 ETOT  5  -8.4409681445777    -1.174E-12 1.177E-06 4.064E-11
 scprqt: <Vxc>= -3.3831366E-01 hartree
 
 At SCF step    5       vres2   =  4.06E-11 < tolvrs=  1.00E-10 =>converged.
 
 Cartesian components of stress tensor (hartree/bohr^3)
  sigma(1 1)= -1.70701049E-05  sigma(3 2)=  0.00000000E+00
  sigma(2 2)= -1.70701049E-05  sigma(3 1)=  0.00000000E+00
  sigma(3 3)= -1.70701049E-05  sigma(2 1)=  0.00000000E+00
 
 
   fftdatar_write: About to write data to: opto_TIM2_DEN with iomode: IO_MODE_FORTRAN
 IO operation completed. cpu:  0.00 [s] , wall:  0.01 [s]
- Creating HDf5 file with MPI-IO support: opto_GSR.nc
 Write iteration in HIST netCDF file
 
---OUTPUT-----------------------------------------------------------------------
 
 Cartesian coordinates (xcart) [bohr]
  0.00000000000000E+00 -6.51740584783041E-30  6.51740584783041E-30
  2.58580484973450E+00  2.58580484973450E+00  2.58580484973450E+00
 Reduced coordinates (xred)
 -1.26022770985591E-30  0.00000000000000E+00  1.26022770985591E-30
  2.50000000000000E-01  2.50000000000000E-01  2.50000000000000E-01
 Cartesian forces (fcart) [Ha/bohr]; max,rms= 1.04132E-28 1.04132E-28 (free atoms)
  1.04131803427890E-28 -1.04131803427890E-28 -1.04131803427890E-28
 -1.04131803427890E-28  1.04131803427890E-28  1.04131803427890E-28
 Reduced forces (fred)
  0.00000000000000E+00  1.07705808926175E-27  0.00000000000000E+00
  0.00000000000000E+00 -1.07705808926175E-27  0.00000000000000E+00
 Scale of Primitive Cell (acell) [bohr]
  7.31376057628931E+00  7.31376057628931E+00  7.31376057628931E+00
 Real space primitive translations (rprimd) [bohr]
  5.17160969946901E+00  5.17160969946901E+00  0.00000000000000E+00
  0.00000000000000E+00  5.17160969946901E+00  5.17160969946901E+00
  5.17160969946901E+00  0.00000000000000E+00  5.17160969946901E+00
 Unitary Cell Volume (ucvol) [Bohr^3]=  2.76635059362091E+02
 Angles (23,13,12)= [degrees]
  6.00000000000000E+01  6.00000000000000E+01  6.00000000000000E+01
 Lengths [Bohr]
  7.31376057628931E+00  7.31376057628931E+00  7.31376057628931E+00
 Stress tensor in cartesian coordinates (strten) [Ha/bohr^3]
 -1.70701049341119E-05  0.00000000000000E+00  0.00000000000000E+00
  0.00000000000000E+00 -1.70701049341108E-05  0.00000000000000E+00
  0.00000000000000E+00  0.00000000000000E+00 -1.70701049341123E-05
 Total energy (etotal) [Ha]= -8.44096814457766E+00
 
 Difference of energy with previous step (new-old):
           Absolute (Ha)=-1.18227E-05
           Relative     =-1.40063E-06
 fconv : at Broyd/MD step   2, gradients have not converged yet. 
  max grad (force/stress) = 1.7070E-03 > tolmxf= 1.0000E-08 ha/bohr (free atoms)
 
 EXIT:           1           1
 mover: previous time step took  2.81 [s]
 
--- Iteration: ( 3/15) Internal Cycle: (1/1)
--------------------------------------------------------------------------------
 
 Cartesian coordinates (xcart) [bohr]
  3.85309946039180E-28 -3.91839678348686E-28 -3.78780213729675E-28
  2.59069541894626E+00  2.59069541894626E+00  2.59069541894626E+00
 Reduced coordinates (xred)
  3.59218685741509E-29 -1.11546288852020E-28  3.84423239938627E-29
  2.50000000000000E-01  2.50000000000000E-01  2.50000000000000E-01
 Scale of Primitive Cell (acell) [bohr]
  7.32759319490329E+00  7.32759319490329E+00  7.32759319490329E+00
 Real space primitive translations (rprimd) [bohr]
  5.18139083789251E+00  5.18139083789251E+00  0.00000000000000E+00
 -2.39066679807358E-17  5.18139083789252E+00  5.18139083789252E+00
  5.18139083789252E+00  2.39066679807358E-17  5.18139083789252E+00
 Unitary Cell Volume (ucvol) [Bohr^3]=  2.78207641239469E+02
 Angles (23,13,12)= [degrees]
  6.00000000000000E+01  6.00000000000000E+01  6.00000000000000E+01
 Lengths [Bohr]
  7.32759319490329E+00  7.32759319490329E+00  7.32759319490329E+00
 
---SELF-CONSISTENT-FIELD CONVERGENCE--------------------------------------------
 
 getcut: wavevector=  0.0000  0.0000  0.0000  ngfft=  18  18  18
         ecut(hartree)=      6.000   => boxcut(ratio)=   2.23464
 
 getcut : COMMENT -
  Note that boxcut > 2.2 ; recall that boxcut=Gcut(box)/Gcut(sphere) = 2
  is sufficient for exact treatment of convolution.
  Such a large boxcut is a waste : you could raise ecut
  e.g. ecut=    7.490394 Hartrees makes boxcut=2
 
 
 ITER STEP NUMBER     1
 vtorho: nnsclo_now=2, note that nnsclo,dbl_nnsclo,istep=0 0 1
 Total charge density [el/Bohr^3]
      Maximum=    8.4612E-02  at reduced coord.    0.1111    0.1111    0.6667
      Minimum=    3.0052E-03  at reduced coord.    0.5000    0.5000    0.5000
   Integrated=    8.0000E+00
 ETOT  1  -8.4409769315414    -8.441E+00 7.870E-07 4.246E-03
 scprqt: <Vxc>= -3.3767034E-01 hartree
 
 Simple mixing update:
  residual square of the potential:   1.392453108652253E-003
 scfcv_core: previous iteration took  0.67 [s]
 
 ITER STEP NUMBER     2
 vtorho: nnsclo_now=2, note that nnsclo,dbl_nnsclo,istep=0 0 2
 Total charge density [el/Bohr^3]
      Maximum=    8.4748E-02  at reduced coord.    0.1111    0.1111    0.6667
      Minimum=    2.9897E-03  at reduced coord.    0.5000    0.5000    0.5000
   Integrated=    8.0000E+00
 ETOT  2  -8.4409811047294    -4.173E-06 6.517E-07 3.626E-04
 scprqt: <Vxc>= -3.3756831E-01 hartree
 
 Pulay update with  1 previous iterations:
 mixing of old trial potential: alpha(m:m-4)=   1.34     -0.339
 scfcv_core: previous iteration took  0.61 [s]
 
 ITER STEP NUMBER     3
 vtorho: nnsclo_now=1, note that nnsclo,dbl_nnsclo,istep=0 0 3
 Total charge density [el/Bohr^3]
      Maximum=    8.4777E-02  at reduced coord.    0.1111    0.1111    0.6667
      Minimum=    2.9833E-03  at reduced coord.    0.5000    0.5000    0.5000
   Integrated=    8.0000E+00
 ETOT  3  -8.4409813739982    -2.693E-07 6.547E-07 9.050E-06
 scprqt: <Vxc>= -3.3753441E-01 hartree
 
 Pulay update with  2 previous iterations:
 mixing of old trial potential: alpha(m:m-4)=   1.37     -0.450      0.800E-01
 scfcv_core: previous iteration took  0.36 [s]
 
 ITER STEP NUMBER     4
 vtorho: nnsclo_now=1, note that nnsclo,dbl_nnsclo,istep=0 0 4
 Total charge density [el/Bohr^3]
      Maximum=    8.4778E-02  at reduced coord.    0.1111    0.1111    0.6667
      Minimum=    2.9821E-03  at reduced coord.    0.5000    0.5000    0.5000
   Integrated=    8.0000E+00
 ETOT  4  -8.4409813777425    -3.744E-09 5.103E-07 4.097E-08
 scprqt: <Vxc>= -3.3753011E-01 hartree
 
 Pulay update with  3 previous iterations:
 mixing of old trial potential: alpha(m:m-4)=   1.22     -0.281      0.791E-01 -0.138E-01
 scfcv_core: previous iteration took  0.33 [s]
 
 ITER STEP NUMBER     5
 vtorho: nnsclo_now=1, note that nnsclo,dbl_nnsclo,istep=0 0 5
 Total charge density [el/Bohr^3]
      Maximum=    8.4778E-02  at reduced coord.    0.1111    0.1111    0.6667
      Minimum=    2.9820E-03  at reduced coord.    0.5000    0.5000    0.5000
   Integrated=    8.0000E+00
 ETOT  5  -8.4409813777513    -8.736E-12 4.622E-07 3.037E-10
 scprqt: <Vxc>= -3.3752999E-01 hartree
 
 Pulay update with  4 previous iterations:
 mixing of old trial potential: alpha(m:m-4)=   1.14     -0.162      0.298E-01 -0.761E-02  0.136E-02
 scfcv_core: previous iteration took  0.38 [s]
 
 ITER STEP NUMBER     6
 vtorho: nnsclo_now=1, note that nnsclo,dbl_nnsclo,istep=0 0 6
 Total charge density [el/Bohr^3]
      Maximum=    8.4778E-02  at reduced coord.    0.1111    0.1111    0.6667
      Minimum=    2.9820E-03  at reduced coord.    0.5000    0.5000    0.5000
   Integrated=    8.0000E+00
 ETOT  6  -8.4409813777513    -3.730E-14 3.965E-07 4.052E-12
 scprqt: <Vxc>= -3.3753000E-01 hartree
 
 At SCF step    6       vres2   =  4.05E-12 < tolvrs=  1.00E-10 =>converged.
 
 Cartesian components of stress tensor (hartree/bohr^3)
  sigma(1 1)=  2.29434267E-07  sigma(3 2)=  0.00000000E+00
  sigma(2 2)=  2.29434267E-07  sigma(3 1)=  0.00000000E+00
  sigma(3 3)=  2.29434267E-07  sigma(2 1)=  0.00000000E+00
 
 
   fftdatar_write: About to write data to: opto_TIM3_DEN with iomode: IO_MODE_FORTRAN
 IO operation completed. cpu:  0.00 [s] , wall:  0.00 [s]
- Creating HDf5 file with MPI-IO support: opto_GSR.nc
 Write iteration in HIST netCDF file
 
---OUTPUT-----------------------------------------------------------------------
 
 Cartesian coordinates (xcart) [bohr]
  3.85309946039180E-28 -3.91839678348686E-28 -3.78780213729675E-28
  2.59069541894626E+00  2.59069541894626E+00  2.59069541894626E+00
 Reduced coordinates (xred)
  3.59218685741509E-29 -1.11546288852020E-28  3.84423239938627E-29
  2.50000000000000E-01  2.50000000000000E-01  2.50000000000000E-01
 Cartesian forces (fcart) [Ha/bohr]; max,rms= 3.89757E-29 2.48776E-29 (free atoms)
 -1.29919036577136E-29  1.29919036577136E-29 -3.89757109731409E-29
  1.29919036577136E-29 -1.29919036577136E-29  3.89757109731409E-29
 Reduced forces (fred)
 -3.36311631437956E-44  1.34632261157719E-28  2.69264522315439E-28
  3.36311631437956E-44 -1.34632261157719E-28 -2.69264522315439E-28
 Scale of Primitive Cell (acell) [bohr]
  7.32759319490329E+00  7.32759319490329E+00  7.32759319490329E+00
 Real space primitive translations (rprimd) [bohr]
  5.18139083789251E+00  5.18139083789251E+00  0.00000000000000E+00
 -2.39066679807358E-17  5.18139083789252E+00  5.18139083789252E+00
  5.18139083789252E+00  2.39066679807358E-17  5.18139083789252E+00
 Unitary Cell Volume (ucvol) [Bohr^3]=  2.78207641239469E+02
 Angles (23,13,12)= [degrees]
  6.00000000000000E+01  6.00000000000000E+01  6.00000000000000E+01
 Lengths [Bohr]
  7.32759319490329E+00  7.32759319490329E+00  7.32759319490329E+00
 Stress tensor in cartesian coordinates (strten) [Ha/bohr^3]
  2.29434267490702E-07  0.00000000000000E+00  0.00000000000000E+00
  0.00000000000000E+00  2.29434267491569E-07  0.00000000000000E+00
  0.00000000000000E+00  0.00000000000000E+00  2.29434267488750E-07
 Total energy (etotal) [Ha]= -8.44098137775130E+00
 
 Difference of energy with previous step (new-old):
           Absolute (Ha)=-1.32332E-05
           Relative     =-1.56773E-06
 fconv : at Broyd/MD step   3, gradients have not converged yet. 
  max grad (force/stress) = 2.2943E-05 > tolmxf= 1.0000E-08 ha/bohr (free atoms)
 
 EXIT:           1           1
 mover: previous time step took  3.17 [s]
 
--- Iteration: ( 4/15) Internal Cycle: (1/1)
--------------------------------------------------------------------------------
 
 Cartesian coordinates (xcart) [bohr]
  3.68669930989549E-28 -3.75199498903046E-28 -4.13680236124289E-28
  2.59063019422220E+00  2.59063019422220E+00  2.59063019422220E+00
 Reduced coordinates (xred)
  3.92906974062574E-29 -1.11705413281152E-28  3.18637907587810E-29
  2.50000000000000E-01  2.50000000000000E-01  2.50000000000000E-01
 Scale of Primitive Cell (acell) [bohr]
  7.32740871152455E+00  7.32740871152455E+00  7.32740871152455E+00
 Real space primitive translations (rprimd) [bohr]
  5.18126038844439E+00  5.18126038844439E+00  0.00000000000000E+00
  0.00000000000000E+00  5.18126038844439E+00  5.18126038844439E+00
  5.18126038844439E+00  0.00000000000000E+00  5.18126038844439E+00
 Unitary Cell Volume (ucvol) [Bohr^3]=  2.78186628858413E+02
 Angles (23,13,12)= [degrees]
  6.00000000000000E+01  6.00000000000000E+01  6.00000000000000E+01
 Lengths [Bohr]
  7.32740871152455E+00  7.32740871152455E+00  7.32740871152455E+00
 
---SELF-CONSISTENT-FIELD CONVERGENCE--------------------------------------------
 
 getcut: wavevector=  0.0000  0.0000  0.0000  ngfft=  18  18  18
         ecut(hartree)=      6.000   => boxcut(ratio)=   2.23469
 
 getcut : COMMENT -
  Note that boxcut > 2.2 ; recall that boxcut=Gcut(box)/Gcut(sphere) = 2
  is sufficient for exact treatment of convolution.
  Such a large boxcut is a waste : you could raise ecut
  e.g. ecut=    7.490771 Hartrees makes boxcut=2
 
 
 ITER STEP NUMBER     1
 vtorho: nnsclo_now=2, note that nnsclo,dbl_nnsclo,istep=0 0 1
 Total charge density [el/Bohr^3]
      Maximum=    8.4786E-02  at reduced coord.    0.1111    0.1111    0.6667
      Minimum=    2.9822E-03  at reduced coord.    0.5000    0.5000    0.5000
   Integrated=    8.0000E+00
 ETOT  1  -8.4409813793907    -8.441E+00 3.020E-07 7.539E-07
 scprqt: <Vxc>= -3.3753856E-01 hartree
 
 Simple mixing update:
  residual square of the potential:   2.472479197455981E-007
 scfcv_core: previous iteration took  0.70 [s]
 
 ITER STEP NUMBER     2
 vtorho: nnsclo_now=2, note that nnsclo,dbl_nnsclo,istep=0 0 2
 Total charge density [el/Bohr^3]
      Maximum=    8.4784E-02  at reduced coord.    0.1111    0.1111    0.6667
      Minimum=    2.9824E-03  at reduced coord.    0.5000    0.5000    0.5000
   Integrated=    8.0000E+00
 ETOT  2  -8.4409813801309    -7.402E-10 2.313E-07 6.452E-08
 scprqt: <Vxc>= -3.3753992E-01 hartree
 
 Pulay update with  1 previous iterations:
 mixing of old trial potential: alpha(m:m-4)=   1.34     -0.339
 scfcv_core: previous iteration took  0.63 [s]
 
 ITER STEP NUMBER     3
 vtorho: nnsclo_now=1, note that nnsclo,dbl_nnsclo,istep=0 0 3
 Total charge density [el/Bohr^3]
      Maximum=    8.4784E-02  at reduced coord.    0.1111    0.1111    0.6667
      Minimum=    2.9825E-03  at reduced coord.    0.5000    0.5000    0.5000
   Integrated=    8.0000E+00
 ETOT  3  -8.4409813801789    -4.791E-11 1.951E-07 1.607E-09
 scprqt: <Vxc>= -3.3754037E-01 hartree
 
 Pulay update with  2 previous iterations:
 mixing of old trial potential: alpha(m:m-4)=   1.37     -0.450      0.803E-01
 scfcv_core: previous iteration took  0.41 [s]
 
 ITER STEP NUMBER     4
 vtorho: nnsclo_now=1, note that nnsclo,dbl_nnsclo,istep=0 0 4
 Total charge density [el/Bohr^3]
      Maximum=    8.4784E-02  at reduced coord.    0.1111    0.1111    0.6667
      Minimum=    2.9825E-03  at reduced coord.    0.5000    0.5000    0.5000
   Integrated=    8.0000E+00
 ETOT  4  -8.4409813801795    -6.626E-13 1.764E-07 7.305E-12
 scprqt: <Vxc>= -3.3754043E-01 hartree
 
 At SCF step    4       vres2   =  7.31E-12 < tolvrs=  1.00E-10 =>converged.
 
 Cartesian components of stress tensor (hartree/bohr^3)
  sigma(1 1)=  8.48718474E-10  sigma(3 2)=  0.00000000E+00
  sigma(2 2)=  8.48718474E-10  sigma(3 1)=  0.00000000E+00
  sigma(3 3)=  8.48718474E-10  sigma(2 1)=  0.00000000E+00
 
 
   fftdatar_write: About to write data to: opto_TIM4_DEN with iomode: IO_MODE_FORTRAN
 IO operation completed. cpu:  0.00 [s] , wall:  0.01 [s]
- Creating HDf5 file with MPI-IO support: opto_GSR.nc
 Write iteration in HIST netCDF file
 
---OUTPUT-----------------------------------------------------------------------
 
 Cartesian coordinates (xcart) [bohr]
  3.68669930989549E-28 -3.75199498903046E-28 -4.13680236124289E-28
  2.59063019422220E+00  2.59063019422220E+00  2.59063019422220E+00
 Reduced coordinates (xred)
  3.92906974062574E-29 -1.11705413281152E-28  3.18637907587810E-29
  2.50000000000000E-01  2.50000000000000E-01  2.50000000000000E-01
 Cartesian forces (fcart) [Ha/bohr]; max,rms= 0.00000E+00 0.00000E+00 (free atoms)
  0.00000000000000E+00  0.00000000000000E+00  0.00000000000000E+00
  0.00000000000000E+00  0.00000000000000E+00  0.00000000000000E+00
 Reduced forces (fred)
  0.00000000000000E+00  0.00000000000000E+00  0.00000000000000E+00
  0.00000000000000E+00  0.00000000000000E+00  0.00000000000000E+00
 Scale of Primitive Cell (acell) [bohr]
  7.32740871152455E+00  7.32740871152455E+00  7.32740871152455E+00
 Real space primitive translations (rprimd) [bohr]
  5.18126038844439E+00  5.18126038844439E+00  0.00000000000000E+00
  0.00000000000000E+00  5.18126038844439E+00  5.18126038844439E+00
  5.18126038844439E+00  0.00000000000000E+00  5.18126038844439E+00
 Unitary Cell Volume (ucvol) [Bohr^3]=  2.78186628858413E+02
 Angles (23,13,12)= [degrees]
  6.00000000000000E+01  6.00000000000000E+01  6.00000000000000E+01
 Lengths [Bohr]
  7.32740871152455E+00  7.32740871152455E+00  7.32740871152455E+00
 Stress tensor in cartesian coordinates (strten) [Ha/bohr^3]
  8.48718473972498E-10  0.00000000000000E+00  0.00000000000000E+00
  0.00000000000000E+00  8.48718474189339E-10  0.00000000000000E+00
  0.00000000000000E+00  0.00000000000000E+00  8.48718473972498E-10
 Total energy (etotal) [Ha]= -8.44098138017952E+00
 
 Difference of energy with previous step (new-old):
           Absolute (Ha)=-2.42822E-09
           Relative     =-2.87671E-10
 fconv : at Broyd/MD step   4, gradients have not converged yet. 
  max grad (force/stress) = 8.4872E-08 > tolmxf= 1.0000E-08 ha/bohr (free atoms)
 
 EXIT:           1           1
 mover: previous time step took  2.42 [s]
 
--- Iteration: ( 5/15) Internal Cycle: (1/1)
--------------------------------------------------------------------------------
 
 Cartesian coordinates (xcart) [bohr]
  3.68656638056765E-28 -3.75186205359919E-28 -4.13664352503838E-28
  2.59062995206677E+00  2.59062995206677E+00  2.59062995206677E+00
 Reduced coordinates (xred)
  3.92891683426146E-29 -1.11701325289345E-28  3.18627608942600E-29
  2.50000000000000E-01  2.50000000000000E-01  2.50000000000000E-01
 Scale of Primitive Cell (acell) [bohr]
  7.32740802660557E+00  7.32740802660557E+00  7.32740802660557E+00
 Real space primitive translations (rprimd) [bohr]
  5.18125990413353E+00  5.18125990413353E+00  0.00000000000000E+00
  0.00000000000000E+00  5.18125990413353E+00  5.18125990413353E+00
  5.18125990413353E+00  0.00000000000000E+00  5.18125990413353E+00
 Unitary Cell Volume (ucvol) [Bohr^3]=  2.78186550849135E+02
 Angles (23,13,12)= [degrees]
  6.00000000000000E+01  6.00000000000000E+01  6.00000000000000E+01
 Lengths [Bohr]
  7.32740802660557E+00  7.32740802660557E+00  7.32740802660557E+00
 
---SELF-CONSISTENT-FIELD CONVERGENCE--------------------------------------------
 
 getcut: wavevector=  0.0000  0.0000  0.0000  ngfft=  18  18  18
         ecut(hartree)=      6.000   => boxcut(ratio)=   2.23469
 
 getcut : COMMENT -
  Note that boxcut > 2.2 ; recall that boxcut=Gcut(box)/Gcut(sphere) = 2
  is sufficient for exact treatment of convolution.
  Such a large boxcut is a waste : you could raise ecut
  e.g. ecut=    7.490772 Hartrees makes boxcut=2
 
 
 ITER STEP NUMBER     1
 vtorho: nnsclo_now=2, note that nnsclo,dbl_nnsclo,istep=0 0 1
 Total charge density [el/Bohr^3]
      Maximum=    8.4784E-02  at reduced coord.    0.1111    0.1111    0.6667
      Minimum=    2.9825E-03  at reduced coord.    0.5000    0.5000    0.5000
   Integrated=    8.0000E+00
 ETOT  1  -8.4409813801796    -8.441E+00 1.342E-07 1.041E-11
 scprqt: <Vxc>= -3.3754046E-01 hartree
 
 At SCF step    1       vres2   =  1.04E-11 < tolvrs=  1.00E-10 =>converged.
 
 Cartesian components of stress tensor (hartree/bohr^3)
  sigma(1 1)= -3.38747151E-10  sigma(3 2)=  0.00000000E+00
  sigma(2 2)= -3.38747151E-10  sigma(3 1)=  0.00000000E+00
  sigma(3 3)= -3.38747152E-10  sigma(2 1)=  0.00000000E+00
 
 
   fftdatar_write: About to write data to: opto_TIM5_DEN with iomode: IO_MODE_FORTRAN
 IO operation completed. cpu:  0.00 [s] , wall:  0.01 [s]
- Creating HDf5 file with MPI-IO support: opto_GSR.nc
 Write iteration in HIST netCDF file
 
---OUTPUT-----------------------------------------------------------------------
 
 Cartesian coordinates (xcart) [bohr]
  3.68656638056765E-28 -3.75186205359919E-28 -4.13664352503838E-28
  2.59062995206677E+00  2.59062995206677E+00  2.59062995206677E+00
 Reduced coordinates (xred)
  3.92891683426146E-29 -1.11701325289345E-28  3.18627608942600E-29
  2.50000000000000E-01  2.50000000000000E-01  2.50000000000000E-01
 Cartesian forces (fcart) [Ha/bohr]; max,rms= 3.24806E-29 2.21885E-29 (free atoms)
 -1.94883479571704E-29  3.24805799286173E-29 -6.49611598572346E-30
  1.94883479571704E-29 -3.24805799286173E-29  6.49611598572346E-30
 Reduced forces (fred)
 -6.73161305788596E-29 -1.34632261157719E-28  1.34632261157719E-28
  6.73161305788596E-29  1.34632261157719E-28 -1.34632261157719E-28
 Scale of Primitive Cell (acell) [bohr]
  7.32740802660557E+00  7.32740802660557E+00  7.32740802660557E+00
 Real space primitive translations (rprimd) [bohr]
  5.18125990413353E+00  5.18125990413353E+00  0.00000000000000E+00
  0.00000000000000E+00  5.18125990413353E+00  5.18125990413353E+00
  5.18125990413353E+00  0.00000000000000E+00  5.18125990413353E+00
 Unitary Cell Volume (ucvol) [Bohr^3]=  2.78186550849135E+02
 Angles (23,13,12)= [degrees]
  6.00000000000000E+01  6.00000000000000E+01  6.00000000000000E+01
 Lengths [Bohr]
  7.32740802660557E+00  7.32740802660557E+00  7.32740802660557E+00
 Stress tensor in cartesian coordinates (strten) [Ha/bohr^3]
 -3.38747151206256E-10  0.00000000000000E+00  0.00000000000000E+00
  0.00000000000000E+00 -3.38747150772575E-10  0.00000000000000E+00
  0.00000000000000E+00  0.00000000000000E+00 -3.38747152073618E-10
 Total energy (etotal) [Ha]= -8.44098138017960E+00
 
 Difference of energy with previous step (new-old):
           Absolute (Ha)=-7.28306E-14
           Relative     =-8.62822E-15
 fconv : at Broyd/MD step   5, gradients have not converged yet. 
  max grad (force/stress) = 3.3875E-08 > tolmxf= 1.0000E-08 ha/bohr (free atoms)
 
 EXIT:           1           1
 mover: previous time step took  0.83 [s]
 
--- Iteration: ( 6/15) Internal Cycle: (1/1)
--------------------------------------------------------------------------------
 
 Cartesian coordinates (xcart) [bohr]
  3.54659776447461E-28 -3.51855574811290E-28 -4.18335768164134E-28
  2.59063002114619E+00  2.59063002114619E+00  2.59063002114619E+00
 Reduced coordinates (xred)
  4.06406903304140E-29 -1.08549957948570E-28  2.78097973024256E-29
  2.50000000000000E-01  2.50000000000000E-01  2.50000000000000E-01
 Scale of Primitive Cell (acell) [bohr]
  7.32740822199169E+00  7.32740822199169E+00  7.32740822199169E+00
 Real space primitive translations (rprimd) [bohr]
  5.18126004229239E+00  5.18126004229239E+00  0.00000000000000E+00
 -2.39066679807358E-17  5.18126004229238E+00  5.18126004229238E+00
  5.18126004229238E+00  7.17200039422074E-17  5.18126004229238E+00
 Unitary Cell Volume (ucvol) [Bohr^3]=  2.78186573102759E+02
 Angles (23,13,12)= [degrees]
  6.00000000000000E+01  6.00000000000000E+01  6.00000000000000E+01
 Lengths [Bohr]
  7.32740822199169E+00  7.32740822199169E+00  7.32740822199169E+00
 
---SELF-CONSISTENT-FIELD CONVERGENCE--------------------------------------------
 
 getcut: wavevector=  0.0000  0.0000  0.0000  ngfft=  18  18  18
         ecut(hartree)=      6.000   => boxcut(ratio)=   2.23469
 
 getcut : COMMENT -
  Note that boxcut > 2.2 ; recall that boxcut=Gcut(box)/Gcut(sphere) = 2
  is sufficient for exact treatment of convolution.
  Such a large boxcut is a waste : you could raise ecut
  e.g. ecut=    7.490772 Hartrees makes boxcut=2
 
 
 ITER STEP NUMBER     1
 vtorho: nnsclo_now=2, note that nnsclo,dbl_nnsclo,istep=0 0 1
 Total charge density [el/Bohr^3]
      Maximum=    8.4784E-02  at reduced coord.    0.1111    0.1111    0.6667
      Minimum=    2.9825E-03  at reduced coord.    0.5000    0.5000    0.5000
   Integrated=    8.0000E+00
 ETOT  1  -8.4409813801796    -8.441E+00 1.021E-07 3.055E-12
 scprqt: <Vxc>= -3.3754046E-01 hartree
 
 At SCF step    1       vres2   =  3.06E-12 < tolvrs=  1.00E-10 =>converged.
 
 Cartesian components of stress tensor (hartree/bohr^3)
  sigma(1 1)=  6.27853658E-10  sigma(3 2)=  0.00000000E+00
  sigma(2 2)=  6.27853656E-10  sigma(3 1)=  0.00000000E+00
  sigma(3 3)=  6.27853658E-10  sigma(2 1)=  0.00000000E+00
 
 
   fftdatar_write: About to write data to: opto_TIM6_DEN with iomode: IO_MODE_FORTRAN
 IO operation completed. cpu:  0.00 [s] , wall:  0.01 [s]
- Creating HDf5 file with MPI-IO support: opto_GSR.nc
 Write iteration in HIST netCDF file
 
---OUTPUT-----------------------------------------------------------------------
 
 Cartesian coordinates (xcart) [bohr]
  3.54659776447461E-28 -3.51855574811290E-28 -4.18335768164134E-28
  2.59063002114619E+00  2.59063002114619E+00  2.59063002114619E+00
 Reduced coordinates (xred)
  4.06406903304140E-29 -1.08549957948570E-28  2.78097973024256E-29
  2.50000000000000E-01  2.50000000000000E-01  2.50000000000000E-01
 Cartesian forces (fcart) [Ha/bohr]; max,rms= 2.59845E-29 1.50021E-29 (free atoms)
  0.00000000000000E+00  0.00000000000000E+00 -2.59844632500153E-29
  0.00000000000000E+00  0.00000000000000E+00  2.59844632500153E-29
 Reduced forces (fred)
  0.00000000000000E+00  1.34632261157719E-28  1.34632261157719E-28
  0.00000000000000E+00 -1.34632261157719E-28 -1.34632261157719E-28
 Scale of Primitive Cell (acell) [bohr]
  7.32740822199169E+00  7.32740822199169E+00  7.32740822199169E+00
 Real space primitive translations (rprimd) [bohr]
  5.18126004229239E+00  5.18126004229239E+00  0.00000000000000E+00
 -2.39066679807358E-17  5.18126004229238E+00  5.18126004229238E+00
  5.18126004229238E+00  7.17200039422074E-17  5.18126004229238E+00
 Unitary Cell Volume (ucvol) [Bohr^3]=  2.78186573102759E+02
 Angles (23,13,12)= [degrees]
  6.00000000000000E+01  6.00000000000000E+01  6.00000000000000E+01
 Lengths [Bohr]
  7.32740822199169E+00  7.32740822199169E+00  7.32740822199169E+00
 Stress tensor in cartesian coordinates (strten) [Ha/bohr^3]
  6.27853657519245E-10  0.00000000000000E+00  0.00000000000000E+00
  0.00000000000000E+00  6.27853656435043E-10  0.00000000000000E+00
  0.00000000000000E+00  0.00000000000000E+00  6.27853657952926E-10
 Total energy (etotal) [Ha]= -8.44098138017959E+00
 
 Difference of energy with previous step (new-old):
           Absolute (Ha)= 1.06581E-14
           Relative     = 1.26267E-15
 fconv : at Broyd/MD step   6, gradients have not converged yet. 
  max grad (force/stress) = 6.2785E-08 > tolmxf= 1.0000E-08 ha/bohr (free atoms)
 
 EXIT:           1           1
 mover: previous time step took  0.68 [s]
 
--- Iteration: ( 7/15) Internal Cycle: (1/1)
--------------------------------------------------------------------------------
 
 Cartesian coordinates (xcart) [bohr]
  3.51027607424520E-28 -3.45803601743810E-28 -4.28695925300042E-28
  2.59062997627578E+00  2.59062997627578E+00  2.59062997627578E+00
 Reduced coordinates (xred)
  4.18739780434162E-29 -1.08615196378450E-28  2.58754903559936E-29
  2.50000000000000E-01  2.50000000000000E-01  2.50000000000000E-01
 Scale of Primitive Cell (acell) [bohr]
  7.32740809507901E+00  7.32740809507901E+00  7.32740809507901E+00
 Real space primitive translations (rprimd) [bohr]
  5.18125995255157E+00  5.18125995255157E+00  0.00000000000000E+00
  0.00000000000000E+00  5.18125995255157E+00  5.18125995255157E+00
  5.18125995255157E+00  0.00000000000000E+00  5.18125995255157E+00
 Unitary Cell Volume (ucvol) [Bohr^3]=  2.78186558647961E+02
 Angles (23,13,12)= [degrees]
  6.00000000000000E+01  6.00000000000000E+01  6.00000000000000E+01
 Lengths [Bohr]
  7.32740809507901E+00  7.32740809507901E+00  7.32740809507901E+00
 
---SELF-CONSISTENT-FIELD CONVERGENCE--------------------------------------------
 
 getcut: wavevector=  0.0000  0.0000  0.0000  ngfft=  18  18  18
         ecut(hartree)=      6.000   => boxcut(ratio)=   2.23469
 
 getcut : COMMENT -
  Note that boxcut > 2.2 ; recall that boxcut=Gcut(box)/Gcut(sphere) = 2
  is sufficient for exact treatment of convolution.
  Such a large boxcut is a waste : you could raise ecut
  e.g. ecut=    7.490772 Hartrees makes boxcut=2
 
 
 ITER STEP NUMBER     1
 vtorho: nnsclo_now=2, note that nnsclo,dbl_nnsclo,istep=0 0 1
 Total charge density [el/Bohr^3]
      Maximum=    8.4784E-02  at reduced coord.    0.1111    0.1111    0.6667
      Minimum=    2.9825E-03  at reduced coord.    0.5000    0.5000    0.5000
   Integrated=    8.0000E+00
 ETOT  1  -8.4409813801796    -8.441E+00 7.753E-08 1.306E-12
 scprqt: <Vxc>= -3.3754046E-01 hartree
 
 At SCF step    1       vres2   =  1.31E-12 < tolvrs=  1.00E-10 =>converged.
 
 Cartesian components of stress tensor (hartree/bohr^3)
  sigma(1 1)= -1.23275786E-11  sigma(3 2)=  0.00000000E+00
  sigma(2 2)= -1.23275793E-11  sigma(3 1)=  0.00000000E+00
  sigma(3 3)= -1.23275786E-11  sigma(2 1)=  0.00000000E+00
 
 
   fftdatar_write: About to write data to: opto_TIM7_DEN with iomode: IO_MODE_FORTRAN
 IO operation completed. cpu:  0.00 [s] , wall:  0.01 [s]
- Creating HDf5 file with MPI-IO support: opto_GSR.nc
 Write iteration in HIST netCDF file
 
---OUTPUT-----------------------------------------------------------------------
 
 Cartesian coordinates (xcart) [bohr]
  3.51027607424520E-28 -3.45803601743810E-28 -4.28695925300042E-28
  2.59062997627578E+00  2.59062997627578E+00  2.59062997627578E+00
 Reduced coordinates (xred)
  4.18739780434162E-29 -1.08615196378450E-28  2.58754903559936E-29
  2.50000000000000E-01  2.50000000000000E-01  2.50000000000000E-01
 Cartesian forces (fcart) [Ha/bohr]; max,rms= 3.24806E-29 1.94883E-29 (free atoms)
 -6.49611592501830E-30  3.24805796250915E-29 -6.49611592501830E-30
  6.49611592501830E-30 -3.24805796250915E-29  6.49611592501830E-30
 Reduced forces (fred)
 -1.34632261157719E-28 -1.34632261157719E-28  6.73161305788597E-29
  1.34632261157719E-28  1.34632261157719E-28 -6.73161305788597E-29
 Scale of Primitive Cell (acell) [bohr]
  7.32740809507901E+00  7.32740809507901E+00  7.32740809507901E+00
 Real space primitive translations (rprimd) [bohr]
  5.18125995255157E+00  5.18125995255157E+00  0.00000000000000E+00
  0.00000000000000E+00  5.18125995255157E+00  5.18125995255157E+00
  5.18125995255157E+00  0.00000000000000E+00  5.18125995255157E+00
 Unitary Cell Volume (ucvol) [Bohr^3]=  2.78186558647961E+02
 Angles (23,13,12)= [degrees]
  6.00000000000000E+01  6.00000000000000E+01  6.00000000000000E+01
 Lengths [Bohr]
  7.32740809507901E+00  7.32740809507901E+00  7.32740809507901E+00
 Stress tensor in cartesian coordinates (strten) [Ha/bohr^3]
 -1.23275786280408E-11  0.00000000000000E+00  0.00000000000000E+00
  0.00000000000000E+00 -1.23275792785621E-11  0.00000000000000E+00
  0.00000000000000E+00  0.00000000000000E+00 -1.23275786280408E-11
 Total energy (etotal) [Ha]= -8.44098138017960E+00
 
 Difference of energy with previous step (new-old):
           Absolute (Ha)=-1.59872E-14
           Relative     =-1.89400E-15
 
 At Broyd/MD step   7, gradients are converged : 
  max grad (force/stress) = 1.2328E-09 < tolmxf= 1.0000E-08 ha/bohr (free atoms)
 
================================================================================
 
 ----iterations are completed or convergence reached----
 
 
 === Gap info ===
  >>>> For spin  1
   Minimum direct gap =   2.7319 [eV], located at k-point      :  -0.0625  0.0000  0.0000
   Fundamental gap    =   0.9345 [eV], Top of valence bands at :  -0.0625  0.0000  0.0000
                                       Bottom of conduction at :  -0.3750 -0.4375  0.0000
 Mean square residual over all n,k,spin=   39.192E-11; max=  77.532E-09
  -0.0625 -0.1250  0.0000    1  6.66709E-14 kpt; spin; max resid(k); each band:
  3.16E-23 1.86E-21 1.06E-21 1.73E-21 2.10E-20 6.67E-14
  -0.0625 -0.2500  0.0000    1  2.81772E-19 kpt; spin; max resid(k); each band:
  3.61E-21 1.69E-21 1.20E-21 7.86E-21 2.82E-19 2.59E-20
  -0.1250 -0.1875  0.0000    1  7.68309E-17 kpt; spin; max resid(k); each band:
  2.82E-21 1.88E-21 2.12E-21 1.01E-18 1.21E-18 7.68E-17
  -0.0625 -0.1875  0.0625    1  3.92636E-18 kpt; spin; max resid(k); each band:
  1.93E-22 1.55E-21 2.20E-21 1.09E-20 2.58E-18 3.93E-18
  -0.0625 -0.3750  0.0000    1  9.68324E-16 kpt; spin; max resid(k); each band:
  1.02E-19 4.46E-16 4.72E-18 4.36E-19 4.52E-16 9.68E-16
  -0.1250 -0.3125  0.0000    1  2.90810E-18 kpt; spin; max resid(k); each band:
  6.98E-21 1.50E-19 2.06E-19 6.89E-22 3.59E-19 2.91E-18
  -0.0625 -0.3125  0.0625    1  2.03270E-18 kpt; spin; max resid(k); each band:
  4.66E-21 2.03E-18 3.78E-21 2.20E-20 1.44E-18 1.91E-18
  -0.1875 -0.2500  0.0000    1  3.60847E-18 kpt; spin; max resid(k); each band:
  3.92E-21 1.93E-19 1.04E-21 2.45E-22 3.44E-19 3.61E-18
  -0.1250 -0.2500  0.0625    1  3.60977E-18 kpt; spin; max resid(k); each band:
  5.28E-20 3.61E-18 8.81E-22 4.28E-20 3.20E-18 1.12E-18
  -0.0625 -0.2500  0.1250    1  6.29490E-18 kpt; spin; max resid(k); each band:
  4.45E-21 9.01E-19 7.12E-22 4.11E-21 6.29E-18 3.04E-18
  -0.0625  0.5000  0.0000    1  3.80456E-20 kpt; spin; max resid(k); each band:
  4.83E-21 3.75E-22 1.23E-22 2.61E-21 3.60E-20 3.80E-20
  -0.1250 -0.4375  0.0000    1  6.70067E-19 kpt; spin; max resid(k); each band:
  2.76E-20 5.38E-21 5.92E-19 6.55E-21 6.70E-19 3.28E-19
  -0.0625 -0.4375  0.0625    1  9.26759E-19 kpt; spin; max resid(k); each band:
  1.03E-19 2.07E-21 2.69E-21 9.69E-22 9.27E-19 5.53E-19
  -0.1875 -0.3750  0.0000    1  2.26214E-13 kpt; spin; max resid(k); each band:
  1.51E-19 5.84E-16 1.92E-18 3.94E-19 1.37E-17 2.26E-13
  -0.1250 -0.3750  0.0625    1  3.25425E-19 kpt; spin; max resid(k); each band:
  6.08E-21 2.35E-21 6.96E-22 1.06E-21 3.25E-19 1.01E-19
  -0.0625 -0.3750  0.1250    1  1.26453E-18 kpt; spin; max resid(k); each band:
  1.04E-20 9.26E-20 7.58E-22 5.84E-22 1.14E-18 1.26E-18
  -0.2500 -0.3125  0.0000    1  8.71727E-19 kpt; spin; max resid(k); each band:
  5.41E-21 8.72E-19 3.37E-21 9.81E-23 8.48E-21 1.37E-19
  -0.1875 -0.3125  0.0625    1  5.17064E-19 kpt; spin; max resid(k); each band:
  4.63E-21 1.38E-19 6.53E-22 1.14E-21 8.94E-20 5.17E-19
  -0.1250 -0.3125  0.1250    1  6.57541E-16 kpt; spin; max resid(k); each band:
  4.46E-21 1.37E-19 4.96E-22 1.91E-21 1.37E-18 6.58E-16
  -0.0625 -0.3125  0.1875    1  4.74448E-16 kpt; spin; max resid(k); each band:
  6.61E-18 1.50E-16 2.75E-19 1.87E-18 4.10E-17 4.74E-16
  -0.0625  0.3750  0.0000    1  2.28180E-10 kpt; spin; max resid(k); each band:
  1.12E-20 8.39E-20 1.71E-20 1.07E-22 8.87E-19 2.28E-10
  -0.1250  0.4375  0.0000    1  3.07997E-18 kpt; spin; max resid(k); each band:
  1.33E-19 5.92E-21 3.39E-22 9.19E-22 3.08E-18 9.70E-20
  -0.1875  0.5000  0.0000    1  6.42149E-18 kpt; spin; max resid(k); each band:
  1.47E-20 1.37E-21 1.07E-19 1.15E-22 3.16E-20 6.42E-18
  -0.1250  0.5000  0.0625    1  1.82794E-16 kpt; spin; max resid(k); each band:
  6.75E-18 1.37E-18 8.93E-21 3.60E-19 9.85E-17 1.83E-16
  -0.2500 -0.4375  0.0000    1  9.16324E-19 kpt; spin; max resid(k); each band:
  1.13E-19 8.37E-20 5.80E-22 3.12E-22 5.17E-20 9.16E-19
  -0.1875 -0.4375  0.0625    1  6.24991E-12 kpt; spin; max resid(k); each band:
  2.68E-20 2.17E-21 7.17E-22 4.02E-22 1.70E-19 6.25E-12
  -0.1250 -0.4375  0.1250    1  1.03353E-18 kpt; spin; max resid(k); each band:
  1.12E-19 6.28E-21 9.97E-22 6.82E-22 2.22E-19 1.03E-18
  -0.0625 -0.4375  0.1875    1  6.94252E-19 kpt; spin; max resid(k); each band:
  1.52E-20 1.63E-21 7.41E-22 4.58E-22 1.17E-19 6.94E-19
  -0.3125 -0.3750  0.0000    1  2.25984E-19 kpt; spin; max resid(k); each band:
  4.93E-21 4.26E-20 5.27E-22 4.53E-23 2.26E-19 4.26E-20
  -0.2500 -0.3750  0.0625    1  9.53655E-17 kpt; spin; max resid(k); each band:
  8.49E-18 9.54E-17 2.82E-21 1.84E-20 6.15E-17 3.99E-17
  -0.1875 -0.3750  0.1250    1  1.24480E-17 kpt; spin; max resid(k); each band:
  5.43E-20 2.46E-20 2.01E-21 1.17E-21 1.29E-18 1.24E-17
  -0.1250 -0.3750  0.1875    1  1.40229E-18 kpt; spin; max resid(k); each band:
  6.18E-21 9.28E-22 4.77E-22 8.67E-22 1.62E-19 1.40E-18
  -0.0625 -0.3750  0.2500    1  2.40491E-18 kpt; spin; max resid(k); each band:
  9.32E-21 6.69E-22 6.50E-22 3.99E-22 1.60E-20 2.40E-18
  -0.0625  0.2500  0.0000    1  3.75541E-17 kpt; spin; max resid(k); each band:
  1.61E-20 6.87E-18 3.25E-20 1.29E-20 1.33E-18 3.76E-17
  -0.1250  0.3125  0.0000    1  6.33215E-08 kpt; spin; max resid(k); each band:
  5.11E-21 2.65E-21 2.37E-19 1.15E-21 1.02E-20 6.33E-08
  -0.1875  0.3750  0.0000    1  2.63453E-14 kpt; spin; max resid(k); each band:
  7.45E-20 3.61E-21 1.63E-20 4.72E-22 6.37E-21 2.63E-14
  -0.2500  0.4375  0.0000    1  4.29139E-13 kpt; spin; max resid(k); each band:
  6.45E-20 1.72E-20 8.56E-19 3.68E-23 1.82E-18 4.29E-13
  -0.3125  0.5000  0.0000    1  5.89118E-19 kpt; spin; max resid(k); each band:
  1.10E-19 4.82E-19 1.25E-21 3.85E-22 5.89E-19 5.49E-19
  -0.2500  0.5000  0.0625    1  1.11990E-18 kpt; spin; max resid(k); each band:
  1.15E-20 1.48E-19 6.77E-22 5.37E-22 2.91E-19 1.12E-18
  -0.1875  0.5000  0.1250    1  2.19885E-16 kpt; spin; max resid(k); each band:
  2.11E-18 2.20E-16 5.65E-19 3.50E-22 5.30E-17 1.41E-16
  -0.3750 -0.4375  0.0000    1  1.23703E-19 kpt; spin; max resid(k); each band:
  1.24E-19 3.60E-22 2.91E-22 1.50E-22 1.47E-21 7.29E-20
  -0.3125 -0.4375  0.0625    1  6.48722E-19 kpt; spin; max resid(k); each band:
  3.22E-20 2.97E-19 4.88E-22 1.02E-21 6.29E-20 6.49E-19
  -0.2500 -0.4375  0.1250    1  1.59839E-16 kpt; spin; max resid(k); each band:
  3.48E-18 9.47E-17 5.45E-20 1.45E-20 1.60E-16 6.11E-19
  -0.1875 -0.4375  0.1875    1  1.20300E-16 kpt; spin; max resid(k); each band:
  1.38E-20 1.55E-18 1.33E-20 1.29E-21 8.51E-18 1.20E-16
  -0.1250 -0.4375  0.2500    1  3.85296E-17 kpt; spin; max resid(k); each band:
  1.22E-20 2.79E-20 6.72E-22 4.06E-22 6.91E-21 3.85E-17
  -0.0625 -0.4375  0.3125    1  1.84907E-17 kpt; spin; max resid(k); each band:
  1.85E-17 5.78E-18 3.47E-19 5.18E-20 1.45E-18 3.57E-19
  -0.0625  0.1250  0.0000    1  9.57017E-18 kpt; spin; max resid(k); each band:
  1.83E-21 1.61E-21 9.80E-21 7.58E-22 9.57E-18 9.47E-18
  -0.1250  0.1875  0.0000    1  5.62696E-18 kpt; spin; max resid(k); each band:
  4.99E-21 4.09E-19 1.50E-21 9.09E-22 1.62E-18 5.63E-18
  -0.1875  0.2500  0.0000    1  4.92042E-16 kpt; spin; max resid(k); each band:
  7.45E-21 6.13E-19 6.71E-22 8.79E-22 1.21E-18 4.92E-16
  -0.2500  0.3125  0.0000    1  1.17098E-12 kpt; spin; max resid(k); each band:
  7.33E-17 1.04E-20 1.32E-18 7.02E-23 3.98E-19 1.17E-12
 outwf : prtvol=0 or 1, do not print more k-points.
 
 
   outwf: writing wavefunctions to: opto_WFK with iomode: IO_MODE_FORTRAN_MASTER
 WFK output completed. cpu:  0.01 [s] , wall:  0.03 [s]
 prteigrs : about to open file opto_EIG
 Fermi (or HOMO) energy (hartree) =   0.14847   Average Vxc (hartree)=  -0.33754
 Eigenvalues (hartree) for nkpt=  60  k points:
 kpt#   1, nband=  6, wtk=  0.01172, kpt= -0.0625 -0.1250  0.0000 (reduced coord)
  -0.27149    0.10637    0.13271    0.13893    0.24073    0.26309
 kpt#   2, nband=  6, wtk=  0.01172, kpt= -0.0625 -0.2500  0.0000 (reduced coord)
  -0.25263    0.02472    0.11487    0.12262    0.24065    0.26875
 kpt#   3, nband=  6, wtk=  0.01172, kpt= -0.1250 -0.1875  0.0000 (reduced coord)
  -0.26189    0.07468    0.11218    0.11584    0.22593    0.29115
 kpt#   4, nband=  6, wtk=  0.02344, kpt= -0.0625 -0.1875  0.0625 (reduced coord)
  -0.25731    0.04975    0.09802    0.13018    0.24658    0.27230
 kpt#   5, nband=  6, wtk=  0.01172, kpt= -0.0625 -0.3750  0.0000 (reduced coord)
  -0.22171   -0.05055    0.10458    0.10543    0.22750    0.27445
 kpt#   6, nband=  6, wtk=  0.01172, kpt= -0.1250 -0.3125  0.0000 (reduced coord)
  -0.23866   -0.00217    0.09601    0.09739    0.23653    0.28668
 kpt#   7, nband=  6, wtk=  0.02344, kpt= -0.0625 -0.3125  0.0625 (reduced coord)
  -0.22989   -0.02663    0.08147    0.11261    0.24455    0.27527
 kpt#   8, nband=  6, wtk=  0.01172, kpt= -0.1875 -0.2500  0.0000 (reduced coord)
  -0.24754    0.03953    0.09179    0.09251    0.21030    0.29086
 kpt#   9, nband=  6, wtk=  0.02344, kpt= -0.1250 -0.2500  0.0625 (reduced coord)
  -0.24309    0.01970    0.07718    0.10596    0.23224    0.29524
 kpt#  10, nband=  6, wtk=  0.02344, kpt= -0.0625 -0.2500  0.1250 (reduced coord)
  -0.23400   -0.00428    0.05714    0.11626    0.26392    0.27511
 kpt#  11, nband=  6, wtk=  0.01172, kpt= -0.0625  0.5000  0.0000 (reduced coord)
  -0.19320   -0.09666    0.09492    0.10373    0.22198    0.27470
 kpt#  12, nband=  6, wtk=  0.01172, kpt= -0.1250 -0.4375  0.0000 (reduced coord)
  -0.20552   -0.06926    0.07640    0.09277    0.23464    0.28355
 kpt#  13, nband=  6, wtk=  0.02344, kpt= -0.0625 -0.4375  0.0625 (reduced coord)
  -0.19686   -0.08568    0.07524    0.10014    0.23804    0.27227
 kpt#  14, nband=  6, wtk=  0.01172, kpt= -0.1875 -0.3750  0.0000 (reduced coord)
  -0.22031   -0.02795    0.06573    0.08203    0.22236    0.30312
 kpt#  15, nband=  6, wtk=  0.02344, kpt= -0.1250 -0.3750  0.0625 (reduced coord)
  -0.21230   -0.04856    0.05944    0.09067    0.23997    0.29182
 kpt#  16, nband=  6, wtk=  0.02344, kpt= -0.0625 -0.3750  0.1250 (reduced coord)
  -0.20103   -0.06752    0.04633    0.09758    0.25303    0.27772
 kpt#  17, nband=  6, wtk=  0.01172, kpt= -0.2500 -0.3125  0.0000 (reduced coord)
  -0.22850    0.00189    0.07164    0.07580    0.19708    0.25892
 kpt#  18, nband=  6, wtk=  0.02344, kpt= -0.1875 -0.3125  0.0625 (reduced coord)
  -0.22434   -0.01127    0.05858    0.08198    0.21893    0.27758
 kpt#  19, nband=  6, wtk=  0.02344, kpt= -0.1250 -0.3125  0.1250 (reduced coord)
  -0.21590   -0.03000    0.03990    0.09049    0.25439    0.29306
 kpt#  20, nband=  6, wtk=  0.02344, kpt= -0.0625 -0.3125  0.1875 (reduced coord)
  -0.20359   -0.04976    0.02220    0.09602    0.25503    0.29838
 kpt#  21, nband=  6, wtk=  0.01172, kpt= -0.0625  0.3750  0.0000 (reduced coord)
  -0.21022   -0.07094    0.09311    0.11172    0.22464    0.28139
 kpt#  22, nband=  6, wtk=  0.01172, kpt= -0.1250  0.4375  0.0000 (reduced coord)
  -0.18888   -0.09432    0.06482    0.09864    0.23614    0.28354
 kpt#  23, nband=  6, wtk=  0.01172, kpt= -0.1875  0.5000  0.0000 (reduced coord)
  -0.18737   -0.08321    0.04354    0.08286    0.22538    0.31651
 kpt#  24, nband=  6, wtk=  0.02344, kpt= -0.1250  0.5000  0.0625 (reduced coord)
  -0.18417   -0.09274    0.04908    0.08713    0.24299    0.28111
 kpt#  25, nband=  6, wtk=  0.01172, kpt= -0.2500 -0.4375  0.0000 (reduced coord)
  -0.19790   -0.05386    0.03883    0.06993    0.20868    0.28308
 kpt#  26, nband=  6, wtk=  0.02344, kpt= -0.1875 -0.4375  0.0625 (reduced coord)
  -0.19144   -0.06846    0.03491    0.07302    0.22742    0.31978
 kpt#  27, nband=  6, wtk=  0.02344, kpt= -0.1250 -0.4375  0.1250 (reduced coord)
  -0.18312   -0.08222    0.02867    0.07563    0.26240    0.27511
 kpt#  28, nband=  6, wtk=  0.02344, kpt= -0.0625 -0.4375  0.1875 (reduced coord)
  -0.17486   -0.09094    0.02060    0.07876    0.23657    0.30825
 kpt#  29, nband=  6, wtk=  0.01172, kpt= -0.3125 -0.3750  0.0000 (reduced coord)
  -0.20505   -0.03697    0.05648    0.06287    0.18777    0.23062
 kpt#  30, nband=  6, wtk=  0.02344, kpt= -0.2500 -0.3750  0.0625 (reduced coord)
  -0.20135   -0.04370    0.04321    0.06326    0.20861    0.25248
 kpt#  31, nband=  6, wtk=  0.02344, kpt= -0.1875 -0.3750  0.1250 (reduced coord)
  -0.19398   -0.05580    0.02655    0.06487    0.24413    0.28917
 kpt#  32, nband=  6, wtk=  0.02344, kpt= -0.1250 -0.3750  0.1875 (reduced coord)
  -0.18342   -0.07031    0.01114    0.06975    0.27130    0.28889
 kpt#  33, nband=  6, wtk=  0.02344, kpt= -0.0625 -0.3750  0.2500 (reduced coord)
  -0.17072   -0.08437    0.00013    0.07467    0.23197    0.33920
 kpt#  34, nband=  6, wtk=  0.01172, kpt= -0.0625  0.2500  0.0000 (reduced coord)
  -0.24346   -0.00204    0.10110    0.12675    0.23570    0.27814
 kpt#  35, nband=  6, wtk=  0.01172, kpt= -0.1250  0.3125  0.0000 (reduced coord)
  -0.21711   -0.04887    0.06400    0.11337    0.24508    0.29164
 kpt#  36, nband=  6, wtk=  0.01172, kpt= -0.1875  0.3750  0.0000 (reduced coord)
  -0.18774   -0.08227    0.03262    0.09448    0.23560    0.31396
 kpt#  37, nband=  6, wtk=  0.01172, kpt= -0.2500  0.4375  0.0000 (reduced coord)
  -0.16970   -0.09219    0.01427    0.07582    0.21560    0.35206
 kpt#  38, nband=  6, wtk=  0.01172, kpt= -0.3125  0.5000  0.0000 (reduced coord)
  -0.17216   -0.08131    0.01948    0.06162    0.19846    0.26913
 kpt#  39, nband=  6, wtk=  0.02344, kpt= -0.2500  0.5000  0.0625 (reduced coord)
  -0.16844   -0.08755    0.01292    0.06208    0.21737    0.31284
 kpt#  40, nband=  6, wtk=  0.02344, kpt= -0.1875  0.5000  0.1250 (reduced coord)
  -0.16556   -0.09269    0.01136    0.05828    0.25422    0.30125
 kpt#  41, nband=  6, wtk=  0.01172, kpt= -0.3750 -0.4375  0.0000 (reduced coord)
  -0.17766   -0.07539    0.04636    0.05408    0.18281    0.20924
 kpt#  42, nband=  6, wtk=  0.02344, kpt= -0.3125 -0.4375  0.0625 (reduced coord)
  -0.17453   -0.07746    0.03209    0.05119    0.20178    0.23457
 kpt#  43, nband=  6, wtk=  0.02344, kpt= -0.2500 -0.4375  0.1250 (reduced coord)
  -0.16883   -0.08268    0.01755    0.04528    0.23672    0.27400
 kpt#  44, nband=  6, wtk=  0.02344, kpt= -0.1875 -0.4375  0.1875 (reduced coord)
  -0.16128   -0.09043    0.00576    0.04444    0.28124    0.29686
 kpt#  45, nband=  6, wtk=  0.02344, kpt= -0.1250 -0.4375  0.2500 (reduced coord)
  -0.15348   -0.09862   -0.00088    0.04977    0.24938    0.33193
 kpt#  46, nband=  6, wtk=  0.02344, kpt= -0.0625 -0.4375  0.3125 (reduced coord)
  -0.14765   -0.10526    0.00006    0.05688    0.21198    0.30701
 kpt#  47, nband=  6, wtk=  0.01172, kpt= -0.0625  0.1250  0.0000 (reduced coord)
  -0.26669    0.07921    0.11905    0.14392    0.25303    0.25945
 kpt#  48, nband=  6, wtk=  0.01172, kpt= -0.1250  0.1875  0.0000 (reduced coord)
  -0.24795    0.02236    0.07729    0.13252    0.26000    0.27773
 kpt#  49, nband=  6, wtk=  0.01172, kpt= -0.1875  0.2500  0.0000 (reduced coord)
  -0.22065   -0.02782    0.03799    0.11394    0.25381    0.30569
 kpt#  50, nband=  6, wtk=  0.01172, kpt= -0.2500  0.3125  0.0000 (reduced coord)
  -0.18806   -0.06812    0.00835    0.09215    0.23252    0.34341
 prteigrs : prtvol=0 or 1, do not print more k-points.
 
 Total charge density [el/Bohr^3]
      Maximum=    8.4784E-02  at reduced coord.    0.1111    0.1111    0.6667
 Next maximum=    8.4784E-02  at reduced coord.    0.1111    0.6667    0.1111
      Minimum=    2.9825E-03  at reduced coord.    0.5000    0.5000    0.5000
 Next minimum=    3.1081E-03  at reduced coord.    0.7778    0.7222    0.7222
   Integrated=    8.0000E+00
 
 Cartesian components of stress tensor (hartree/bohr^3)
  sigma(1 1)= -1.23275786E-11  sigma(3 2)=  0.00000000E+00
  sigma(2 2)= -1.23275793E-11  sigma(3 1)=  0.00000000E+00
  sigma(3 3)= -1.23275786E-11  sigma(2 1)=  0.00000000E+00
 
-Cartesian components of stress tensor (GPa)         [Pressure=  3.6269E-07 GPa]
- sigma(1 1)= -3.62689824E-07  sigma(3 2)=  0.00000000E+00
- sigma(2 2)= -3.62689843E-07  sigma(3 1)=  0.00000000E+00
- sigma(3 3)= -3.62689824E-07  sigma(2 1)=  0.00000000E+00
 
== END DATASET(S) ==============================================================
================================================================================
  
 -outvars: echo values of variables after computation  --------
 
 These variables are accessible in NetCDF format (opto_OUT.nc)

            acell      7.3274080951E+00  7.3274080951E+00  7.3274080951E+00 Bohr
              amu      2.80855000E+01
          dilatmx      1.05000000E+00
             ecut      6.00000000E+00 Hartree
           ecutsm      5.00000000E-01 Hartree
           etotal     -8.4409813802E+00
            fcart     -6.4961159250E-30  3.2480579625E-29 -6.4961159250E-30
                       6.4961159250E-30 -3.2480579625E-29  6.4961159250E-30
-          fftalg         312
           ionmov           2
              ixc          11
              kpt     -6.25000000E-02 -1.25000000E-01  0.00000000E+00
                      -6.25000000E-02 -2.50000000E-01  0.00000000E+00
                      -1.25000000E-01 -1.87500000E-01  0.00000000E+00
                      -6.25000000E-02 -1.87500000E-01  6.25000000E-02
                      -6.25000000E-02 -3.75000000E-01  0.00000000E+00
                      -1.25000000E-01 -3.12500000E-01  0.00000000E+00
                      -6.25000000E-02 -3.12500000E-01  6.25000000E-02
                      -1.87500000E-01 -2.50000000E-01  0.00000000E+00
                      -1.25000000E-01 -2.50000000E-01  6.25000000E-02
                      -6.25000000E-02 -2.50000000E-01  1.25000000E-01
                      -6.25000000E-02  5.00000000E-01  0.00000000E+00
                      -1.25000000E-01 -4.37500000E-01  0.00000000E+00
                      -6.25000000E-02 -4.37500000E-01  6.25000000E-02
                      -1.87500000E-01 -3.75000000E-01  0.00000000E+00
                      -1.25000000E-01 -3.75000000E-01  6.25000000E-02
                      -6.25000000E-02 -3.75000000E-01  1.25000000E-01
                      -2.50000000E-01 -3.12500000E-01  0.00000000E+00
                      -1.87500000E-01 -3.12500000E-01  6.25000000E-02
                      -1.25000000E-01 -3.12500000E-01  1.25000000E-01
                      -6.25000000E-02 -3.12500000E-01  1.87500000E-01
                      -6.25000000E-02  3.75000000E-01  0.00000000E+00
                      -1.25000000E-01  4.37500000E-01  0.00000000E+00
                      -1.87500000E-01  5.00000000E-01  0.00000000E+00
                      -1.25000000E-01  5.00000000E-01  6.25000000E-02
                      -2.50000000E-01 -4.37500000E-01  0.00000000E+00
                      -1.87500000E-01 -4.37500000E-01  6.25000000E-02
                      -1.25000000E-01 -4.37500000E-01  1.25000000E-01
                      -6.25000000E-02 -4.37500000E-01  1.87500000E-01
                      -3.12500000E-01 -3.75000000E-01  0.00000000E+00
                      -2.50000000E-01 -3.75000000E-01  6.25000000E-02
                      -1.87500000E-01 -3.75000000E-01  1.25000000E-01
                      -1.25000000E-01 -3.75000000E-01  1.87500000E-01
                      -6.25000000E-02 -3.75000000E-01  2.50000000E-01
                      -6.25000000E-02  2.50000000E-01  0.00000000E+00
                      -1.25000000E-01  3.12500000E-01  0.00000000E+00
                      -1.87500000E-01  3.75000000E-01  0.00000000E+00
                      -2.50000000E-01  4.37500000E-01  0.00000000E+00
                      -3.12500000E-01  5.00000000E-01  0.00000000E+00
                      -2.50000000E-01  5.00000000E-01  6.25000000E-02
                      -1.87500000E-01  5.00000000E-01  1.25000000E-01
                      -3.75000000E-01 -4.37500000E-01  0.00000000E+00
                      -3.12500000E-01 -4.37500000E-01  6.25000000E-02
                      -2.50000000E-01 -4.37500000E-01  1.25000000E-01
                      -1.87500000E-01 -4.37500000E-01  1.87500000E-01
                      -1.25000000E-01 -4.37500000E-01  2.50000000E-01
                      -6.25000000E-02 -4.37500000E-01  3.12500000E-01
                      -6.25000000E-02  1.25000000E-01  0.00000000E+00
                      -1.25000000E-01  1.87500000E-01  0.00000000E+00
                      -1.87500000E-01  2.50000000E-01  0.00000000E+00
                      -2.50000000E-01  3.12500000E-01  0.00000000E+00
                       outvar_i_n : Printing only first  50 k-points.
         kptrlatt        8   -8    8     -8    8    8     -8   -8    8
          kptrlen      8.26875349E+01
P           mkmem          10
            natom           2
            nband           6
            ngfft          18      18      18
             nkpt          60
             nsym          48
            ntime          15
           ntypat           1
              occ      2.000000  2.000000  2.000000  2.000000  0.000000  0.000000
          optcell           2
            rprim      7.0710678119E-01  7.0710678119E-01  0.0000000000E+00
                       0.0000000000E+00  7.0710678119E-01  7.0710678119E-01
                       7.0710678119E-01  0.0000000000E+00  7.0710678119E-01
           shiftk      5.00000000E-01  5.00000000E-01  5.00000000E-01
          spgroup         227
           strten     -1.2327578628E-11 -1.2327579279E-11 -1.2327578628E-11
                       0.0000000000E+00  0.0000000000E+00  0.0000000000E+00
           symrel      1  0  0   0  1  0   0  0  1      -1  0  0   0 -1  0   0  0 -1
                       0 -1  1   0 -1  0   1 -1  0       0  1 -1   0  1  0  -1  1  0
                      -1  0  0  -1  0  1  -1  1  0       1  0  0   1  0 -1   1 -1  0
                       0  1 -1   1  0 -1   0  0 -1       0 -1  1  -1  0  1   0  0  1
                      -1  0  0  -1  1  0  -1  0  1       1  0  0   1 -1  0   1  0 -1
                       0 -1  1   1 -1  0   0 -1  0       0  1 -1  -1  1  0   0  1  0
                       1  0  0   0  0  1   0  1  0      -1  0  0   0  0 -1   0 -1  0
                       0  1 -1   0  0 -1   1  0 -1       0 -1  1   0  0  1  -1  0  1
                      -1  0  1  -1  1  0  -1  0  0       1  0 -1   1 -1  0   1  0  0
                       0 -1  0   1 -1  0   0 -1  1       0  1  0  -1  1  0   0  1 -1
                       1  0 -1   0  0 -1   0  1 -1      -1  0  1   0  0  1   0 -1  1
                       0  1  0   0  0  1   1  0  0       0 -1  0   0  0 -1  -1  0  0
                       1  0 -1   0  1 -1   0  0 -1      -1  0  1   0 -1  1   0  0  1
                       0 -1  0   0 -1  1   1 -1  0       0  1  0   0  1 -1  -1  1  0
                      -1  0  1  -1  0  0  -1  1  0       1  0 -1   1  0  0   1 -1  0
                       0  1  0   1  0  0   0  0  1       0 -1  0  -1  0  0   0  0 -1
                       0  0 -1   0  1 -1   1  0 -1       0  0  1   0 -1  1  -1  0  1
                       1 -1  0   0 -1  1   0 -1  0      -1  1  0   0  1 -1   0  1  0
                       0  0  1   1  0  0   0  1  0       0  0 -1  -1  0  0   0 -1  0
                      -1  1  0  -1  0  0  -1  0  1       1 -1  0   1  0  0   1  0 -1
                       0  0  1   0  1  0   1  0  0       0  0 -1   0 -1  0  -1  0  0
                       1 -1  0   0 -1  0   0 -1  1      -1  1  0   0  1  0   0  1 -1
                       0  0 -1   1  0 -1   0  1 -1       0  0  1  -1  0  1   0 -1  1
                      -1  1  0  -1  0  1  -1  0  0       1 -1  0   1  0 -1   1  0  0
            tnons      0.0000000  0.0000000  0.0000000     0.2500000  0.2500000  0.2500000
                       0.0000000  0.0000000  0.0000000     0.2500000  0.2500000  0.2500000
                       0.0000000  0.0000000  0.0000000     0.2500000  0.2500000  0.2500000
                       0.0000000  0.0000000  0.0000000     0.2500000  0.2500000  0.2500000
                       0.0000000  0.0000000  0.0000000     0.2500000  0.2500000  0.2500000
                       0.0000000  0.0000000  0.0000000     0.2500000  0.2500000  0.2500000
                       0.0000000  0.0000000  0.0000000     0.2500000  0.2500000  0.2500000
                       0.0000000  0.0000000  0.0000000     0.2500000  0.2500000  0.2500000
                       0.0000000  0.0000000  0.0000000     0.2500000  0.2500000  0.2500000
                       0.0000000  0.0000000  0.0000000     0.2500000  0.2500000  0.2500000
                       0.0000000  0.0000000  0.0000000     0.2500000  0.2500000  0.2500000
                       0.0000000  0.0000000  0.0000000     0.2500000  0.2500000  0.2500000
                       0.0000000  0.0000000  0.0000000     0.2500000  0.2500000  0.2500000
                       0.0000000  0.0000000  0.0000000     0.2500000  0.2500000  0.2500000
                       0.0000000  0.0000000  0.0000000     0.2500000  0.2500000  0.2500000
                       0.0000000  0.0000000  0.0000000     0.2500000  0.2500000  0.2500000
                       0.0000000  0.0000000  0.0000000     0.2500000  0.2500000  0.2500000
                       0.0000000  0.0000000  0.0000000     0.2500000  0.2500000  0.2500000
                       0.0000000  0.0000000  0.0000000     0.2500000  0.2500000  0.2500000
                       0.0000000  0.0000000  0.0000000     0.2500000  0.2500000  0.2500000
                       0.0000000  0.0000000  0.0000000     0.2500000  0.2500000  0.2500000
                       0.0000000  0.0000000  0.0000000     0.2500000  0.2500000  0.2500000
                       0.0000000  0.0000000  0.0000000     0.2500000  0.2500000  0.2500000
                       0.0000000  0.0000000  0.0000000     0.2500000  0.2500000  0.2500000
           tolmxf      1.00000000E-08
           tolvrs      1.00000000E-10
            typat      1  1
              wtk        0.01172    0.01172    0.01172    0.02344    0.01172    0.01172
                         0.02344    0.01172    0.02344    0.02344    0.01172    0.01172
                         0.02344    0.01172    0.02344    0.02344    0.01172    0.02344
                         0.02344    0.02344    0.01172    0.01172    0.01172    0.02344
                         0.01172    0.02344    0.02344    0.02344    0.01172    0.02344
                         0.02344    0.02344    0.02344    0.01172    0.01172    0.01172
                         0.01172    0.01172    0.02344    0.02344    0.01172    0.02344
                         0.02344    0.02344    0.02344    0.02344    0.01172    0.01172
                         0.01172    0.01172
                       outvars : Printing only first  50 k-points.
           xangst      1.8575580943E-28 -1.8299138469E-28 -2.2685611308E-28
                       1.3709023393E+00  1.3709023393E+00  1.3709023393E+00
            xcart      3.5102760742E-28 -3.4580360174E-28 -4.2869592530E-28
                       2.5906299763E+00  2.5906299763E+00  2.5906299763E+00
             xred      4.1873978043E-29 -1.0861519638E-28  2.5875490356E-29
                       2.5000000000E-01  2.5000000000E-01  2.5000000000E-01
            znucl       14.00000
 
================================================================================
  

================================================================================

 Suggested references for the acknowledgment of ABINIT usage.

 The users of ABINIT have little formal obligations with respect to the ABINIT group
 (those specified in the GNU General Public License, http://www.gnu.org/copyleft/gpl.txt).
 However, it is common practice in the scientific literature,
 to acknowledge the efforts of people that have made the research possible.
 In this spirit, please find below suggested citations of work written by ABINIT developers,
 corresponding to implementations inside of ABINIT that you have used in the present run.
 Note also that it will be of great value to readers of publications presenting these results,
 to read papers enabling them to understand the theoretical formalism and details
 of the ABINIT implementation.
 For information on why they are suggested, see also https://docs.abinit.org/theory/acknowledgments.
-
- [1] Recent developments in the ABINIT software package.
- Computer Phys. Comm. 205, 106 (2016).
- X.Gonze, F.Jollet, F.Abreu Araujo, D.Adams, B.Amadon, T.Applencourt,
- C.Audouze, J.-M.Beuken, J.Bieder, A.Bokhanchuk, E.Bousquet, F.Bruneval
- D.Caliste, M.Cote, F.Dahm, F.Da Pieve, M.Delaveau, M.Di Gennaro,
- B.Dorado, C.Espejo, G.Geneste, L.Genovese, A.Gerossier, M.Giantomassi,
- Y.Gillet, D.R.Hamann, L.He, G.Jomard, J.Laflamme Janssen, S.Le Roux,
- A.Levitt, A.Lherbier, F.Liu, I.Lukacevic, A.Martin, C.Martins,
- M.J.T.Oliveira, S.Ponce, Y.Pouillon, T.Rangel, G.-M.Rignanese,
- A.H.Romero, B.Rousseau, O.Rubel, A.A.Shukri, M.Stankovski, M.Torrent,
- M.J.Van Setten, B.Van Troeye, M.J.Verstraete, D.Waroquier, J.Wiktor,
- B.Xu, A.Zhou, J.W.Zwanziger.
- Comment: the fourth generic paper describing the ABINIT project.
- Note that a version of this paper, that is not formatted for Computer Phys. Comm. 
- is available at https://www.abinit.org/about/ABINIT16.pdf .
- The licence allows the authors to put it on the Web.
- DOI and bibtex: see https://docs.abinit.org/theory/bibliography/#gonze2016
-
- [2] Optimized norm-conserving Vanderbilt pseudopotentials.
- D.R. Hamann, Phys. Rev. B 88, 085117 (2013).
- Comment: Some pseudopotential generated using the ONCVPSP code were used.
- DOI and bibtex: see https://docs.abinit.org/theory/bibliography/#hamann2013
-
- [3] ABINIT: First-principles approach of materials and nanosystem properties.
- Computer Phys. Comm. 180, 2582-2615 (2009).
- X. Gonze, B. Amadon, P.-M. Anglade, J.-M. Beuken, F. Bottin, P. Boulanger, F. Bruneval,
- D. Caliste, R. Caracas, M. Cote, T. Deutsch, L. Genovese, Ph. Ghosez, M. Giantomassi
- S. Goedecker, D.R. Hamann, P. Hermet, F. Jollet, G. Jomard, S. Leroux, M. Mancini, S. Mazevet,
- M.J.T. Oliveira, G. Onida, Y. Pouillon, T. Rangel, G.-M. Rignanese, D. Sangalli, R. Shaltaf,
- M. Torrent, M.J. Verstraete, G. Zerah, J.W. Zwanziger
- Comment: the third generic paper describing the ABINIT project.
- Note that a version of this paper, that is not formatted for Computer Phys. Comm. 
- is available at https://www.abinit.org/about/ABINIT_CPC_v10.pdf .
- The licence allows the authors to put it on the Web.
- DOI and bibtex: see https://docs.abinit.org/theory/bibliography/#gonze2009
-
- [4] A brief introduction to the ABINIT software package.
- Z. Kristallogr. 220, 558-562 (2005).
- X. Gonze, G.-M. Rignanese, M. Verstraete, J.-M. Beuken, Y. Pouillon, R. Caracas, F. Jollet,
- M. Torrent, G. Zerah, M. Mikami, Ph. Ghosez, M. Veithen, J.-Y. Raty, V. Olevano, F. Bruneval,
- L. Reining, R. Godby, G. Onida, D.R. Hamann, and D.C. Allan.
- Comment: the second generic paper describing the ABINIT project. Note that this paper
- should be cited especially if you are using the GW part of ABINIT, as several authors
- of this part are not in the list of authors of the first or third paper.
- The .pdf of the latter paper is available at https://www.abinit.org/about/zfk_0505-06_558-562.pdf.
- Note that it should not redistributed (Copyright by Oldenburg Wissenshaftverlag,
- the licence allows the authors to put it on the Web).
- DOI and bibtex: see https://docs.abinit.org/theory/bibliography/#gonze2005
-
- And optionally:
-
- [5] First-principles computation of material properties: the ABINIT software project. 
- X. Gonze, J.-M. Beuken, R. Caracas, F. Detraux, M. Fuchs, G.-M. Rignanese, L. Sindic,
- M. Verstraete, G. Zerah, F. Jollet, M. Torrent, A. Roy, M. Mikami, Ph. Ghosez, J.-Y. Raty, D.C. Allan.
- Computational Materials Science 25, 478-492 (2002). http://dx.doi.org/10.1016/S0927-0256(02)00325-7
- Comment: the original paper describing the ABINIT project.
- DOI and bibtex : see https://docs.abinit.org/theory/bibliography/#gonze2002
 Proc.   0 individual time (sec): cpu=          5.5  wall=         16.4
 
 Calculation completed.
.Delivered   0 WARNINGs and   7 COMMENTs to log file.

--- !FinalSummary
program: abinit
version: 8.11.13
start_datetime: Fri Jan 10 11:50:31 2020
end_datetime: Fri Jan 10 11:50:48 2020
overall_cpu_time:          47.6
overall_wall_time:          98.3
exit_requested_by_user: no 
timelimit: 0
pseudos: 
    Si  : 45c393525680abc7b25445b8ec62bf83
usepaw: 0
mpi_procs: 6
omp_threads: 1
num_warnings: 0
num_comments: 7
...
