  ABINIT 8.11.13
  
  Give name for formatted input file: 
opt.in
  Give name for formatted output file:
opt.out
  Give root name for generic input files:
opti
  Give root name for generic output files:
opto
  Give root name for generic temporary files:
opt
 
--- !COMMENT
src_file: m_dtfil.F90
src_line: 1450
message: |
    Output file: opt.out already exists.
...
 
 
--- !COMMENT
src_file: m_dtfil.F90
src_line: 1474
message: |
    Renaming old opt.out to opt.out0004
...
 

.Version 8.11.13 of ABINIT 
.(MPI version, prepared for a x86_64_linux_intel14.0 computer) 

.Copyright (C) 1998-2019 ABINIT group . 
 ABINIT comes with ABSOLUTELY NO WARRANTY.
 It is free software, and you are welcome to redistribute it
 under certain conditions (GNU General Public License,
 see ~abinit/COPYING or http://www.gnu.org/copyleft/gpl.txt).

 ABINIT is a project of the Universite Catholique de Louvain,
 Corning Inc. and other collaborators, see ~abinit/doc/developers/contributors.txt .
 Please read https://docs.abinit.org/theory/acknowledgments for suggested
 acknowledgments of the ABINIT effort.
 For more information, see https://www.abinit.org .

.Starting date : Tue 14 Jan 2020.
- ( at 17h09 )
  
 
 ++++++++++++++++++++++++++++++++++++++++++++++++++++++++++++++++++++++++++++++
 
 === Build Information === 
  Version       : 8.11.13
  Build target  : x86_64_linux_intel14.0
  Build date    : 20191206
 
 === Compiler Suite === 
  C compiler       : intel14.0
  C++ compiler     : gnu14.0
  Fortran compiler : intel14.0
  CFLAGS           :  -g -O2
  CXXFLAGS         :  -g -O2 -mtune=native -march=native
  FCFLAGS          :  -g -extend-source -nofpscomp
  FC_LDFLAGS       :    -static-intel -static-libgcc
 
 === Optimizations === 
  Debug level        : basic
  Optimization level : standard
  Architecture       : intel_xeon
 
 === Multicore === 
  Parallel build : yes
  Parallel I/O   : yes
  openMP support : no
  GPU support    : no
 
 === Connectors / Fallbacks === 
  Connectors on : yes
  Fallbacks on  : yes
  DFT flavor    : libxc-fallback
  FFT flavor    : fftw3
  LINALG flavor : mkl
  TIMER flavor  : abinit
  TRIO flavor   : netcdf
 
 === Experimental features === 
  Exports             : no
  GW double-precision : yes
 
 ++++++++++++++++++++++++++++++++++++++++++++++++++++++++++++++++++++++++++++++
 

 ++++++++++++++++++++++++++++++++++++++++++++++++++++++++++++++++++++++++++++++
 Default optimizations:
   -O3


 Optimizations for 43_ptgroups:
   -O0


 ++++++++++++++++++++++++++++++++++++++++++++++++++++++++++++++++++++++++++++++


 ++++++++++++++++++++++++++++++++++++++++++++++++++++++++++++++++++++++++++++++
 CPP options activated during the build:

                  CC_INTEL                   CXX_GNU                  FC_INTEL
 
 HAVE_FC_ALLOCATABLE_DT...             HAVE_FC_ASYNC  HAVE_FC_COMMAND_ARGUMENT
 
        HAVE_FC_CONTIGUOUS           HAVE_FC_CPUTIME             HAVE_FC_ETIME
 
              HAVE_FC_EXIT             HAVE_FC_FLUSH             HAVE_FC_GAMMA
 
            HAVE_FC_GETENV            HAVE_FC_GETPID   HAVE_FC_IEEE_ARITHMETIC
 
   HAVE_FC_IEEE_EXCEPTIONS             HAVE_FC_IOMSG     HAVE_FC_ISO_C_BINDING
 
  HAVE_FC_ISO_FORTRAN_2008        HAVE_FC_LONG_LINES        HAVE_FC_MOVE_ALLOC
 
  HAVE_FC_ON_THE_FLY_SHAPE           HAVE_FC_PRIVATE         HAVE_FC_PROTECTED
 
           HAVE_FC_SHIFTLR         HAVE_FC_STREAM_IO            HAVE_FC_SYSTEM
 
                  HAVE_FFT            HAVE_FFT_FFTW3              HAVE_FFT_MPI
 
           HAVE_FFT_SERIAL               HAVE_GW_DPC        HAVE_LIBPAW_ABINIT
 
      HAVE_LIBTETRA_ABINIT                HAVE_LIBXC               HAVE_LINALG
 
         HAVE_LINALG_AXPBY        HAVE_LINALG_GEMM3M  HAVE_LINALG_MKL_IMATCOPY
 
   HAVE_LINALG_MKL_OMATADD  HAVE_LINALG_MKL_OMATCOPY   HAVE_LINALG_MKL_THREADS
 
        HAVE_LINALG_SERIAL                  HAVE_MPI                 HAVE_MPI2
 
       HAVE_MPI_IALLREDUCE        HAVE_MPI_IALLTOALL       HAVE_MPI_IALLTOALLV
 
           HAVE_MPI_IBCAST         HAVE_MPI_IGATHERV        HAVE_MPI_INTEGER16
 
               HAVE_MPI_IO HAVE_MPI_TYPE_CREATE_S...               HAVE_NETCDF
 
           HAVE_NETCDF_MPI                HAVE_NUMPY             HAVE_OS_LINUX
 
         HAVE_TIMER_ABINIT                  HAVE_XML              USE_MACROAVE
 
 ++++++++++++++++++++++++++++++++++++++++++++++++++++++++++++++++++++++++++++++

- input  file    -> opt.in
- output file    -> opt.out
- root for input  files -> opti
- root for output files -> opto
 
Netcdf library supports MPI-IO
-instrng: 56 lines of input have been read from file opt.in
 

 Please give name of formatted atomic psp file
 For atom type 1, psp file is /CECI/home/ucl/naps/jovbever/.PsP/Si/Si.psp8
  read the values zionpsp=  4.0 , pspcod=   8 , lmax=   2
 
 inpspheads: deduce mpsang = 3, n1xccc = 2501.

======================================================= 
invars1m : enter jdtset= 0
 
 symlatt: the Bravais lattice is cF (face-centered cubic)
  xred   is defined in input file
 ingeo: takes atomic coordinates from input array xred
 
 symlatt: the Bravais lattice is cF (face-centered cubic)
 
 symlatt: the Bravais lattice is cF (face-centered cubic)
 
--- !COMMENT
src_file: m_symfind.F90
src_line: 931
message: |
    The Bravais lattice determined only from the primitive
    vectors, bravais(1)=  7, is more symmetric
    than the real one, iholohedry=  3, obtained by taking into
    account the atomic positions. Start deforming the primitive vector set.
...
 
 
 symlatt: the Bravais lattice is oI (body-centered orthorhombic)
 symspgr: spgroup=  74  Im m a   (=D2h^28)
 
--- !WARNING
src_file: m_mpinfo.F90
src_line: 2292
message: |
    nkpt*nsppol (40) is not a multiple of nproc_kpt (14)
    The k-point parallelisation is inefficient. (Ignore this warning if this is not a GS run)
...
 
 For input ecut=  1.764000E+01 best grid ngfft=      32      32      32
       max ecut=  1.965348E+01
 
 ==== FFT mesh ====
  FFT mesh divisions ........................    32   32   32
  Augmented FFT divisions ...................    33   33   32
  FFT algorithm .............................   312
  FFT cache size ............................    16
 getmpw: optimal value of mpw= 1300
 
 Symmetries : space group Im m a (# 74); Bravais oI (body-center ortho.)
 
 getdim_nloc : deduce lmnmax  =  18, lnmax  =   6,
                      lmnmaxso=  18, lnmaxso=   6.
memory: analysis of memory needs
================================================================================
 Values of the parameters that define the memory need of the present run
     intxc =       0    ionmov =       2      iscf =       7    lmnmax =       6
     lnmax =       6     mgfft =      32  mpssoang =       3    mqgrid =    3001
     natom =       2  nloc_mem =       1    nspden =       1   nspinor =       1
    nsppol =       1      nsym =       8    n1xccc =    2501    ntypat =       1
    occopt =       1   xclevel =       2
-    mband =           4        mffmem =           1         mkmem =           3
       mpw =        1300          nfft =       32768          nkpt =          40
================================================================================
P This job should need less than                      11.543 Mbytes of memory.
  Rough estimation (10% accuracy) of disk space for files :
_ WF disk file :      3.176 Mbytes ; DEN or POT disk file :      0.252 Mbytes.
================================================================================
 
 Biggest array : f_fftgr(disk), with      4.0020 MBytes.
 memana : allocated an array of      4.002 Mbytes, for testing purposes.
 memana: allocated      11.543Mbytes, for testing purposes. 
 The job will continue.
--------------------------------------------------------------------------------
------------- Echo of variables that govern the present computation ------------
--------------------------------------------------------------------------------
-
- outvars: echo of selected default values                                      
-   iomode0 =  0 , fftalg0 =312 , wfoptalg0 =  0
-
- outvars: echo of global parameters not present in the input file              
-  max_nthreads =    0
-
 -outvars: echo values of preprocessed input variables --------
 
 These variables are accessible in NetCDF format (opto_OUT.nc)

            acell      1.1338356797E+01  1.1338356797E+01  1.1338356797E+01 Bohr
              amu      2.80855000E+01
          dilatmx      1.05000000E+00
             ecut      1.60000000E+01 Hartree
           ecutsm      5.00000000E-01 Hartree
-          fftalg         312
           ionmov           2
              ixc          11
              kpt     -1.25000000E-01 -2.50000000E-01  0.00000000E+00
                      -2.50000000E-01 -1.25000000E-01  0.00000000E+00
                      -1.25000000E-01  5.00000000E-01  0.00000000E+00
                      -2.50000000E-01 -3.75000000E-01  0.00000000E+00
                      -1.25000000E-01 -3.75000000E-01  1.25000000E-01
                      -3.75000000E-01 -2.50000000E-01  0.00000000E+00
                      -1.25000000E-01 -2.50000000E-01  2.50000000E-01
                       5.00000000E-01 -1.25000000E-01  0.00000000E+00
                      -3.75000000E-01 -1.25000000E-01  1.25000000E-01
                      -1.25000000E-01  2.50000000E-01  0.00000000E+00
                      -2.50000000E-01  3.75000000E-01  0.00000000E+00
                      -3.75000000E-01  5.00000000E-01  0.00000000E+00
                      -2.50000000E-01  5.00000000E-01  1.25000000E-01
                       5.00000000E-01 -3.75000000E-01  0.00000000E+00
                      -2.50000000E-01 -3.75000000E-01  2.50000000E-01
                       3.75000000E-01 -2.50000000E-01  0.00000000E+00
                       5.00000000E-01 -2.50000000E-01  1.25000000E-01
                       2.50000000E-01 -1.25000000E-01  0.00000000E+00
                       3.75000000E-01 -1.25000000E-01  1.25000000E-01
                       5.00000000E-01 -1.25000000E-01  2.50000000E-01
                      -1.25000000E-01  0.00000000E+00  0.00000000E+00
                       3.75000000E-01 -3.75000000E-01  1.25000000E-01
                       2.50000000E-01 -2.50000000E-01  1.25000000E-01
                       3.75000000E-01 -2.50000000E-01  2.50000000E-01
                       0.00000000E+00 -1.25000000E-01  0.00000000E+00
                       1.25000000E-01 -1.25000000E-01  1.25000000E-01
                       2.50000000E-01 -1.25000000E-01  2.50000000E-01
                       3.75000000E-01 -1.25000000E-01  3.75000000E-01
                      -3.75000000E-01  0.00000000E+00  0.00000000E+00
                      -2.50000000E-01  0.00000000E+00  1.25000000E-01
                       2.50000000E-01  5.00000000E-01  1.25000000E-01
                       0.00000000E+00 -3.75000000E-01  0.00000000E+00
                       1.25000000E-01 -3.75000000E-01  1.25000000E-01
                       2.50000000E-01 -3.75000000E-01  2.50000000E-01
                      -2.50000000E-01 -3.75000000E-01 -2.50000000E-01
                       5.00000000E-01  0.00000000E+00  1.25000000E-01
                      -3.75000000E-01  0.00000000E+00  2.50000000E-01
                       2.50000000E-01  0.00000000E+00  1.25000000E-01
                       3.75000000E-01  0.00000000E+00  2.50000000E-01
                       5.00000000E-01  0.00000000E+00  3.75000000E-01
         kptrlatt        4   -4    4     -4    4    4     -4   -4    4
          kptrlen      4.53534272E+01
P           mkmem           3
            natom           2
            nband           4
            ngfft          32      32      32
             nkpt          40
             nsym           8
            ntime         100
           ntypat           1
              occ      2.000000  2.000000  2.000000  2.000000
          optcell           2
            rprim      5.0000000000E-01  5.0000000000E-01  0.0000000000E+00
                       0.0000000000E+00  5.0000000000E-01  5.0000000000E-01
                       5.0000000000E-01  0.0000000000E+00  5.0000000000E-01
           shiftk      5.00000000E-01  5.00000000E-01  5.00000000E-01
          spgroup          74
           symrel      1  0  0   0  1  0   0  0  1      -1  0  0   0 -1  0   0  0 -1
                       0 -1  1   0 -1  0   1 -1  0       0  1 -1   0  1  0  -1  1  0
                       0  0  1   0  1  0   1  0  0       0  0 -1   0 -1  0  -1  0  0
                       1 -1  0   0 -1  0   0 -1  1      -1  1  0   0  1  0   0  1 -1
            tnons      0.0000000  0.0000000  0.0000000     0.2400000  0.2600000  0.2400000
                       0.0000000  0.0000000  0.0000000     0.2400000  0.2600000  0.2400000
                       0.0000000  0.0000000  0.0000000     0.2400000  0.2600000  0.2400000
                       0.0000000  0.0000000  0.0000000     0.2400000  0.2600000  0.2400000
           tolmxf      1.00000000E-09
           tolvrs      1.00000000E-16
            typat      1  1
              wtk        0.03125    0.03125    0.03125    0.03125    0.03125    0.03125
                         0.03125    0.03125    0.03125    0.03125    0.03125    0.03125
                         0.03125    0.03125    0.03125    0.03125    0.03125    0.03125
                         0.03125    0.03125    0.01563    0.03125    0.03125    0.03125
                         0.01563    0.01563    0.01563    0.01563    0.01563    0.01563
                         0.03125    0.01563    0.01563    0.01563    0.01563    0.01563
                         0.01563    0.01563    0.01563    0.01563
           xangst      0.0000000000E+00  0.0000000000E+00  0.0000000000E+00
                       1.4400000000E+00  1.5000000000E+00  1.5000000000E+00
            xcart      0.0000000000E+00  0.0000000000E+00  0.0000000000E+00
                       2.7212056314E+00  2.8345891993E+00  2.8345891993E+00
             xred      0.0000000000E+00  0.0000000000E+00  0.0000000000E+00
                       2.4000000000E-01  2.6000000000E-01  2.4000000000E-01
            znucl       14.00000
 
================================================================================
 
 chkinp: Checking input parameters for consistency.
 
 chkinp: WARNING -
   Chksymbreak=1 . Found potentially symmetry-breaking value of tnons, 
   which is neither a rational fraction in 1/8th nor in 1/12th :
   for the symmetry number    2
   symrel is  -1  0  0  0 -1  0  0  0 -1
   tnons is     2.400000E-01    2.600000E-01    2.400000E-01
   Please, read the description of the input variable chksymbreak,
   then, if you feel confident, you might switch it to zero, or consult with the forum.
 
 chkinp: WARNING -
   Chksymbreak=1 . Found potentially symmetry-breaking value of tnons, 
   which is neither a rational fraction in 1/8th nor in 1/12th :
   for the symmetry number    2
   symrel is  -1  0  0  0 -1  0  0  0 -1
   tnons is     2.400000E-01    2.600000E-01    2.400000E-01
   Please, read the description of the input variable chksymbreak,
   then, if you feel confident, you might switch it to zero, or consult with the forum.
 
 chkinp: WARNING -
   Chksymbreak=1 . Found potentially symmetry-breaking value of tnons, 
   which is neither a rational fraction in 1/8th nor in 1/12th :
   for the symmetry number    2
   symrel is  -1  0  0  0 -1  0  0  0 -1
   tnons is     2.400000E-01    2.600000E-01    2.400000E-01
   Please, read the description of the input variable chksymbreak,
   then, if you feel confident, you might switch it to zero, or consult with the forum.
 
 chkinp: WARNING -
   Chksymbreak=1 . Found potentially symmetry-breaking value of tnons, 
   which is neither a rational fraction in 1/8th nor in 1/12th :
   for the symmetry number    4
   symrel is   0  1 -1  0  1  0 -1  1  0
   tnons is     2.400000E-01    2.600000E-01    2.400000E-01
   Please, read the description of the input variable chksymbreak,
   then, if you feel confident, you might switch it to zero, or consult with the forum.
 
 chkinp: WARNING -
   Chksymbreak=1 . Found potentially symmetry-breaking value of tnons, 
   which is neither a rational fraction in 1/8th nor in 1/12th :
   for the symmetry number    4
   symrel is   0  1 -1  0  1  0 -1  1  0
   tnons is     2.400000E-01    2.600000E-01    2.400000E-01
   Please, read the description of the input variable chksymbreak,
   then, if you feel confident, you might switch it to zero, or consult with the forum.
 
 chkinp: WARNING -
   Chksymbreak=1 . Found potentially symmetry-breaking value of tnons, 
   which is neither a rational fraction in 1/8th nor in 1/12th :
   for the symmetry number    4
   symrel is   0  1 -1  0  1  0 -1  1  0
   tnons is     2.400000E-01    2.600000E-01    2.400000E-01
   Please, read the description of the input variable chksymbreak,
   then, if you feel confident, you might switch it to zero, or consult with the forum.
 
 chkinp: WARNING -
   Chksymbreak=1 . Found potentially symmetry-breaking value of tnons, 
   which is neither a rational fraction in 1/8th nor in 1/12th :
   for the symmetry number    6
   symrel is   0  0 -1  0 -1  0 -1  0  0
   tnons is     2.400000E-01    2.600000E-01    2.400000E-01
   Please, read the description of the input variable chksymbreak,
   then, if you feel confident, you might switch it to zero, or consult with the forum.
 
 chkinp: WARNING -
   Chksymbreak=1 . Found potentially symmetry-breaking value of tnons, 
   which is neither a rational fraction in 1/8th nor in 1/12th :
   for the symmetry number    6
   symrel is   0  0 -1  0 -1  0 -1  0  0
   tnons is     2.400000E-01    2.600000E-01    2.400000E-01
   Please, read the description of the input variable chksymbreak,
   then, if you feel confident, you might switch it to zero, or consult with the forum.
 
 chkinp: WARNING -
   Chksymbreak=1 . Found potentially symmetry-breaking value of tnons, 
   which is neither a rational fraction in 1/8th nor in 1/12th :
   for the symmetry number    6
   symrel is   0  0 -1  0 -1  0 -1  0  0
   tnons is     2.400000E-01    2.600000E-01    2.400000E-01
   Please, read the description of the input variable chksymbreak,
   then, if you feel confident, you might switch it to zero, or consult with the forum.
 
 chkinp: WARNING -
   Chksymbreak=1 . Found potentially symmetry-breaking value of tnons, 
   which is neither a rational fraction in 1/8th nor in 1/12th :
   for the symmetry number    8
   symrel is  -1  1  0  0  1  0  0  1 -1
   tnons is     2.400000E-01    2.600000E-01    2.400000E-01
   Please, read the description of the input variable chksymbreak,
   then, if you feel confident, you might switch it to zero, or consult with the forum.
 
 chkinp: WARNING -
   Chksymbreak=1 . Found potentially symmetry-breaking value of tnons, 
   which is neither a rational fraction in 1/8th nor in 1/12th :
   for the symmetry number    8
   symrel is  -1  1  0  0  1  0  0  1 -1
   tnons is     2.400000E-01    2.600000E-01    2.400000E-01
   Please, read the description of the input variable chksymbreak,
   then, if you feel confident, you might switch it to zero, or consult with the forum.
 
 chkinp: WARNING -
   Chksymbreak=1 . Found potentially symmetry-breaking value of tnons, 
   which is neither a rational fraction in 1/8th nor in 1/12th :
   for the symmetry number    8
   symrel is  -1  1  0  0  1  0  0  1 -1
   tnons is     2.400000E-01    2.600000E-01    2.400000E-01
   Please, read the description of the input variable chksymbreak,
   then, if you feel confident, you might switch it to zero, or consult with the forum.
 DATA TYPE INFORMATION: 
 REAL:      Data type name: REAL(DP) 
            Kind value:      8
            Precision:      15
            Smallest nonnegligible quantity relative to 1:  0.22204460E-15
            Smallest positive number:                       0.22250739-307
            Largest representable number:                   0.17976931+309
 INTEGER:   Data type name: INTEGER(default) 
            Kind value: 4
            Bit size:   32
            Largest representable number: 2147483647
 LOGICAL:   Data type name: LOGICAL 
            Kind value: 4
 CHARACTER: Data type name: CHARACTER             Kind value: 1

  ==== OpenMP parallelism is OFF ====
 
  ==== Using MPI-2 specifications ==== 
  MPI-IO support is ON
  xmpi_tag_ub ................   1073741824
  xmpi_bsize_ch ..............            1
  xmpi_bsize_int .............            4
  xmpi_bsize_sp ..............            4
  xmpi_bsize_dp ..............            8
  xmpi_bsize_spc .............            8
  xmpi_bsize_dpc .............           16
  xmpio_bsize_frm ............            4
  xmpi_address_kind ..........            8
  xmpi_offset_kind ...........            8
  MPI_WTICK ..................   1.000000000000000E-006
 
================================================================================
== DATASET  1 ==================================================================
-   nproc =   14
 
 
--- !COMMENT
src_file: m_xgScalapack.F90
src_line: 237
message: |
    xgScalapack in auto mode
...
 
 
 getdim_nloc : deduce lmnmax  =  18, lnmax  =   6,
                      lmnmaxso=  18, lnmaxso=   6.
 Exchange-correlation functional for the present dataset will be:
  GGA: Perdew-Burke-Ernzerhof functional - ixc=11
 Citation for XC functional:
  J.P.Perdew, K.Burke, M.Ernzerhof, PRL 77, 3865 (1996)
 
 Unit cell volume ucvol=  3.6441007E+02 bohr^3
 Angles (23,13,12)=  6.00000000E+01  6.00000000E+01  6.00000000E+01 degrees
 
 getcut: wavevector=  0.0000  0.0000  0.0000  ngfft=  32  32  32
         ecut(hartree)=     17.640   => boxcut(ratio)=   2.11106
- pspini: atom type   1  psp file is /CECI/home/ucl/naps/jovbever/.PsP/Si/Si.psp8
- pspatm: opening atomic psp file    /CECI/home/ucl/naps/jovbever/.PsP/Si/Si.psp8
- Si    ONCVPSP-3.2.3.1  r_core=   1.60303   1.72197   1.91712
- 14.00000   4.00000    170510                znucl, zion, pspdat
    8   11    2    4       600   0.00000      pspcod,pspxc,lmax,lloc,mmax,r2well
    5.99000000000000    4.00000000000000    0.00000000000000   rchrg,fchrg,qchrg
     nproj     2     2     2
     extension_switch     1
  valence charge integrates to:    3.95328304696650     
  pspatm : epsatm=    9.34321699
         --- l  ekb(1:nproj) -->
             0    5.168965    0.829883
             1    2.571282    0.578307
             2   -2.427311   -0.488097
 pspatm: atomic psp has been read  and splines computed
 
   1.49491472E+02                                ecore*ucvol(ha*bohr**3)
 ==== Info on pseudopotentials ====
  Norm-conserving pseudopotentials
  Number of pseudopotentials ..    1
  Number of types of atoms   ..    1
  Scalar calculation (no spin-orbit term)
  Nonlocal part applied using Legendre polynomials
  Max number of non-local projectors over l and type   2
  Highest angular momentum +1 .......   3
  Max number of (l,n)   components ..   6
  Max number of (l,m,n) components ..   6
 
 Pseudo-Core Charge Info: 
   Number of radial points for pseudo-core charge .. 2501
   XC core-correction treatment (optnlxccc) ........    1
   Radius for pseudo-core charge for each type ..... 
 
  - Atom type    1 has pseudo-core radius ..  5.9900
 
 Info on the Q-grid used for form factors in spline form: 
   Number of q-points for radial functions ffspl ..   3001
   Number of q-points for vlspl ...................   3001
   vloc is computed in Reciprocal Space
   model core charge treated in real-space
 
  XC functional for type 1 is 11
  Pseudo valence available: yes
 
 wfconv:     4 bands initialized randomly with npw=  1300, for ikpt=     1
 wfconv:     4 bands initialized randomly with npw=  1300, for ikpt=     2
 wfconv:     4 bands initialized randomly with npw=  1282, for ikpt=     3
_setup2: Arith. and geom. avg. npw (full set) are    1288.813    1288.795
 initro: for itypat=  1, take pseudo charge density from pp file
 
================================================================================
 
=== [ionmov= 2] Broyden-Fletcher-Goldfard-Shanno method (forces)            
================================================================================
 
--- Iteration: (  1/100) Internal Cycle: (1/1)
--------------------------------------------------------------------------------
 
 Cartesian coordinates (xcart) [bohr]
  0.00000000000000E+00  0.00000000000000E+00  0.00000000000000E+00
  2.72120563135533E+00  2.83458919932846E+00  2.83458919932846E+00
 Reduced coordinates (xred)
  0.00000000000000E+00  0.00000000000000E+00  0.00000000000000E+00
  2.40000000000000E-01  2.60000000000000E-01  2.40000000000000E-01
 Scale of Primitive Cell (acell) [bohr]
  1.13383567973139E+01  1.13383567973139E+01  1.13383567973139E+01
 Real space primitive translations (rprimd) [bohr]
  5.66917839865693E+00  5.66917839865693E+00  0.00000000000000E+00
  0.00000000000000E+00  5.66917839865693E+00  5.66917839865693E+00
  5.66917839865693E+00  0.00000000000000E+00  5.66917839865693E+00
 Unitary Cell Volume (ucvol) [Bohr^3]=  3.64410067486860E+02
 Angles (23,13,12)= [degrees]
  6.00000000000000E+01  6.00000000000000E+01  6.00000000000000E+01
 Lengths [Bohr]
  8.01742897889321E+00  8.01742897889321E+00  8.01742897889321E+00
 
---SELF-CONSISTENT-FIELD CONVERGENCE--------------------------------------------
 
 getcut: wavevector=  0.0000  0.0000  0.0000  ngfft=  32  32  32
         ecut(hartree)=     16.000   => boxcut(ratio)=   2.21661
 
 getcut : COMMENT -
  Note that boxcut > 2.2 ; recall that boxcut=Gcut(box)/Gcut(sphere) = 2
  is sufficient for exact treatment of convolution.
  Such a large boxcut is a waste : you could raise ecut
  e.g. ecut=   19.653481 Hartrees makes boxcut=2
 
 
 ITER STEP NUMBER     1
 vtorho: nnsclo_now=2, note that nnsclo,dbl_nnsclo,istep=0 0 1
 
--- !WARNING
src_file: m_vtorho.F90
src_line: 1699
message: |
    For k-point number 1,
    The minimal occupation factor is  2.000.
    An adequate monitoring of convergence requires it to be  at most 0.01_dp.
    Action: increase slightly the number of bands.
...
 
 Total charge density [el/Bohr^3]
      Maximum=    7.2393E-02  at reduced coord.    0.1563    0.5000    0.1563
      Minimum=    1.6029E-03  at reduced coord.    0.7500    0.7500    0.7500
   Integrated=    8.0000E+00
 ETOT  1  -8.4312522707124    -8.431E+00 2.347E-02 2.008E+00
 scprqt: <Vxc>= -2.9999202E-01 hartree
 
 Simple mixing update:
  residual square of the potential:    1.12367127053014
 scfcv_core: previous iteration took  0.51 [s]
 
 ITER STEP NUMBER     2
 vtorho: nnsclo_now=2, note that nnsclo,dbl_nnsclo,istep=0 0 2
 
--- !WARNING
src_file: m_vtorho.F90
src_line: 1699
message: |
    For k-point number 1,
    The minimal occupation factor is  2.000.
    An adequate monitoring of convergence requires it to be  at most 0.01_dp.
    Action: increase slightly the number of bands.
...
 
 Total charge density [el/Bohr^3]
      Maximum=    7.0864E-02  at reduced coord.    0.1563    0.5000    0.1563
      Minimum=    1.5988E-03  at reduced coord.    0.0000    0.0000    0.0000
   Integrated=    8.0000E+00
 ETOT  2  -8.4363524875023    -5.100E-03 9.239E-06 6.714E-02
 scprqt: <Vxc>= -3.0093518E-01 hartree
 
 Pulay update with  1 previous iterations:
 mixing of old trial potential: alpha(m:m-4)=   1.20     -0.199
 scfcv_core: previous iteration took  0.42 [s]
 
 ITER STEP NUMBER     3
 vtorho: nnsclo_now=1, note that nnsclo,dbl_nnsclo,istep=0 0 3
 
--- !WARNING
src_file: m_vtorho.F90
src_line: 1699
message: |
    For k-point number 1,
    The minimal occupation factor is  2.000.
    An adequate monitoring of convergence requires it to be  at most 0.01_dp.
    Action: increase slightly the number of bands.
...
 
 Total charge density [el/Bohr^3]
      Maximum=    7.0598E-02  at reduced coord.    0.1563    0.5000    0.1563
      Minimum=    1.6023E-03  at reduced coord.    0.0000    0.0000    0.0000
   Integrated=    8.0000E+00
 ETOT  3  -8.4363653631619    -1.288E-05 7.954E-07 1.743E-03
 scprqt: <Vxc>= -3.0111578E-01 hartree
 
 Pulay update with  2 previous iterations:
 mixing of old trial potential: alpha(m:m-4)=   1.22     -0.266      0.437E-01
 scfcv_core: previous iteration took  0.28 [s]
 
 ITER STEP NUMBER     4
 vtorho: nnsclo_now=1, note that nnsclo,dbl_nnsclo,istep=0 0 4
 
--- !WARNING
src_file: m_vtorho.F90
src_line: 1699
message: |
    For k-point number 1,
    The minimal occupation factor is  2.000.
    An adequate monitoring of convergence requires it to be  at most 0.01_dp.
    Action: increase slightly the number of bands.
...
 
 Total charge density [el/Bohr^3]
      Maximum=    7.0616E-02  at reduced coord.    0.1563    0.5000    0.1563
      Minimum=    1.6026E-03  at reduced coord.    0.0000    0.0000    0.0000
   Integrated=    8.0000E+00
 ETOT  4  -8.4363655374400    -1.743E-07 4.699E-08 1.573E-04
 scprqt: <Vxc>= -3.0109648E-01 hartree
 
 Pulay update with  3 previous iterations:
 mixing of old trial potential: alpha(m:m-4)=   1.45     -0.502      0.639E-01 -0.115E-01
 scfcv_core: previous iteration took  0.25 [s]
 
 ITER STEP NUMBER     5
 vtorho: nnsclo_now=1, note that nnsclo,dbl_nnsclo,istep=0 0 5
 
--- !WARNING
src_file: m_vtorho.F90
src_line: 1699
message: |
    For k-point number 1,
    The minimal occupation factor is  2.000.
    An adequate monitoring of convergence requires it to be  at most 0.01_dp.
    Action: increase slightly the number of bands.
...
 
 Total charge density [el/Bohr^3]
      Maximum=    7.0618E-02  at reduced coord.    0.1563    0.5000    0.1563
      Minimum=    1.6026E-03  at reduced coord.    0.0000    0.0000    0.0000
   Integrated=    8.0000E+00
 ETOT  5  -8.4363655514997    -1.406E-08 2.768E-09 5.129E-06
 scprqt: <Vxc>= -3.0108870E-01 hartree
 
 Pulay update with  4 previous iterations:
 mixing of old trial potential: alpha(m:m-4)=   1.33     -0.426      0.104     -0.943E-02  0.229E-02
 scfcv_core: previous iteration took  0.32 [s]
 
 ITER STEP NUMBER     6
 vtorho: nnsclo_now=1, note that nnsclo,dbl_nnsclo,istep=0 0 6
 Total charge density [el/Bohr^3]
      Maximum=    7.0619E-02  at reduced coord.    0.1563    0.5000    0.1563
      Minimum=    1.6026E-03  at reduced coord.    0.0000    0.0000    0.0000
   Integrated=    8.0000E+00
 ETOT  6  -8.4363655523789    -8.791E-10 2.551E-10 7.796E-08
 scprqt: <Vxc>= -3.0108659E-01 hartree
 
 Pulay update with  5 previous iterations:
 mixing of old trial potential: alpha(m:m-4)=   1.18     -0.203      0.284E-01 -0.553E-02 -0.235E-03
 scfcv_core: previous iteration took  0.37 [s]
 
 ITER STEP NUMBER     7
 vtorho: nnsclo_now=1, note that nnsclo,dbl_nnsclo,istep=0 0 7
 Total charge density [el/Bohr^3]
      Maximum=    7.0619E-02  at reduced coord.    0.1563    0.5000    0.1563
      Minimum=    1.6026E-03  at reduced coord.    0.0000    0.0000    0.0000
   Integrated=    8.0000E+00
 ETOT  7  -8.4363655523961    -1.724E-11 1.196E-11 1.014E-09
 scprqt: <Vxc>= -3.0108640E-01 hartree
 
 Pulay update with  6 previous iterations:
 mixing of old trial potential: alpha(m:m-4)=   1.21     -0.232      0.187E-01 -0.826E-03  0.625E-03
 scfcv_core: previous iteration took  0.25 [s]
 
 ITER STEP NUMBER     8
 vtorho: nnsclo_now=1, note that nnsclo,dbl_nnsclo,istep=0 0 8
 Total charge density [el/Bohr^3]
      Maximum=    7.0619E-02  at reduced coord.    0.1563    0.5000    0.1563
      Minimum=    1.6026E-03  at reduced coord.    0.0000    0.0000    0.0000
   Integrated=    8.0000E+00
 ETOT  8  -8.4363655523969    -7.940E-13 1.196E-12 5.919E-12
 scprqt: <Vxc>= -3.0108638E-01 hartree
 
 Pulay update with  7 previous iterations:
 mixing of old trial potential: alpha(m:m-4)=   1.13     -0.144      0.166E-01  0.153E-02 -0.769E-03
 scfcv_core: previous iteration took  0.24 [s]
 
 ITER STEP NUMBER     9
 vtorho: nnsclo_now=1, note that nnsclo,dbl_nnsclo,istep=0 0 9
 Total charge density [el/Bohr^3]
      Maximum=    7.0619E-02  at reduced coord.    0.1563    0.5000    0.1563
      Minimum=    1.6026E-03  at reduced coord.    0.0000    0.0000    0.0000
   Integrated=    8.0000E+00
 ETOT  9  -8.4363655523969    -3.908E-14 6.875E-14 8.340E-14
 scprqt: <Vxc>= -3.0108638E-01 hartree
 
 Pulay update with  7 previous iterations:
 mixing of old trial potential: alpha(m:m-4)=   1.06     -0.653E-01  0.469E-02 -0.129E-02 -0.170E-03
 scfcv_core: previous iteration took  0.24 [s]
 
 ITER STEP NUMBER    10
 vtorho: nnsclo_now=1, note that nnsclo,dbl_nnsclo,istep=0 0 10
 Total charge density [el/Bohr^3]
      Maximum=    7.0619E-02  at reduced coord.    0.1563    0.5000    0.1563
      Minimum=    1.6026E-03  at reduced coord.    0.0000    0.0000    0.0000
   Integrated=    8.0000E+00
 ETOT 10  -8.4363655523969     3.553E-14 7.260E-15 2.728E-15
 scprqt: <Vxc>= -3.0108638E-01 hartree
 
 Pulay update with  7 previous iterations:
 mixing of old trial potential: alpha(m:m-4)=   1.15     -0.152      0.348E-03  0.331E-03  0.129E-03
 scfcv_core: previous iteration took  0.26 [s]
 
 ITER STEP NUMBER    11
 vtorho: nnsclo_now=1, note that nnsclo,dbl_nnsclo,istep=0 0 11
 Total charge density [el/Bohr^3]
      Maximum=    7.0619E-02  at reduced coord.    0.1563    0.5000    0.1563
      Minimum=    1.6026E-03  at reduced coord.    0.0000    0.0000    0.0000
   Integrated=    8.0000E+00
 ETOT 11  -8.4363655523969     7.105E-15 3.356E-16 3.378E-16
 scprqt: <Vxc>= -3.0108638E-01 hartree
 
 Pulay update with  7 previous iterations:
 mixing of old trial potential: alpha(m:m-4)=   1.14     -0.866E-01 -0.561E-01  0.588E-02 -0.389E-03
 scfcv_core: previous iteration took  0.26 [s]
 
 ITER STEP NUMBER    12
 vtorho: nnsclo_now=1, note that nnsclo,dbl_nnsclo,istep=0 0 12
 Total charge density [el/Bohr^3]
      Maximum=    7.0619E-02  at reduced coord.    0.1563    0.5000    0.1563
      Minimum=    1.6026E-03  at reduced coord.    0.0000    0.0000    0.0000
   Integrated=    8.0000E+00
 ETOT 12  -8.4363655523969    -5.507E-14 3.706E-17 1.220E-17
 scprqt: <Vxc>= -3.0108638E-01 hartree
 
 At SCF step   12       vres2   =  1.22E-17 < tolvrs=  1.00E-16 =>converged.
 
 Cartesian components of stress tensor (hartree/bohr^3)
  sigma(1 1)=  4.43242720E-04  sigma(3 2)= -4.20952680E-06
  sigma(2 2)=  4.41863099E-04  sigma(3 1)=  0.00000000E+00
  sigma(3 3)=  4.41863099E-04  sigma(2 1)=  0.00000000E+00
 
 
   fftdatar_write: About to write data to: opto_TIM1_DEN with iomode: IO_MODE_FORTRAN
 IO operation completed. cpu:  0.00 [s] , wall:  0.00 [s]
- Creating HDf5 file with MPI-IO support: opto_GSR.nc
 Write iteration in HIST netCDF file
 
---OUTPUT-----------------------------------------------------------------------
 
 Cartesian coordinates (xcart) [bohr]
  0.00000000000000E+00  0.00000000000000E+00  0.00000000000000E+00
  2.72120563135533E+00  2.83458919932846E+00  2.83458919932846E+00
 Reduced coordinates (xred)
  0.00000000000000E+00  0.00000000000000E+00  0.00000000000000E+00
  2.40000000000000E-01  2.60000000000000E-01  2.40000000000000E-01
 Cartesian forces (fcart) [Ha/bohr]; max,rms= 8.72391E-03 5.03675E-03 (free atoms)
 -8.72391107592695E-03  0.00000000000000E+00  0.00000000000000E+00
  8.72391107592695E-03  0.00000000000000E+00  0.00000000000000E+00
 Reduced forces (fred)
  4.94574082234490E-02  0.00000000000000E+00  4.94574082234490E-02
 -4.94574082234490E-02  0.00000000000000E+00 -4.94574082234490E-02
 Scale of Primitive Cell (acell) [bohr]
  1.13383567973139E+01  1.13383567973139E+01  1.13383567973139E+01
 Real space primitive translations (rprimd) [bohr]
  5.66917839865693E+00  5.66917839865693E+00  0.00000000000000E+00
  0.00000000000000E+00  5.66917839865693E+00  5.66917839865693E+00
  5.66917839865693E+00  0.00000000000000E+00  5.66917839865693E+00
 Unitary Cell Volume (ucvol) [Bohr^3]=  3.64410067486860E+02
 Angles (23,13,12)= [degrees]
  6.00000000000000E+01  6.00000000000000E+01  6.00000000000000E+01
 Lengths [Bohr]
  8.01742897889321E+00  8.01742897889321E+00  8.01742897889321E+00
 Stress tensor in cartesian coordinates (strten) [Ha/bohr^3]
  4.43242719692686E-04  0.00000000000000E+00  0.00000000000000E+00
  0.00000000000000E+00  4.41863098705290E-04 -4.20952679838695E-06
  0.00000000000000E+00 -4.20952679838695E-06  4.41863098705290E-04
 Total energy (etotal) [Ha]= -8.43636555239695E+00
 fconv : at Broyd/MD step   1, gradients have not converged yet. 
  max grad (force/stress) = 4.4324E-02 > tolmxf= 1.0000E-09 ha/bohr (free atoms)
 
Inverse hessian has been initialized.
 EXIT:           1           1
 mover: previous time step took  4.02 [s]
 
--- Iteration: (  2/100) Internal Cycle: (1/1)
--------------------------------------------------------------------------------
 
 Cartesian coordinates (xcart) [bohr]
 -8.60790677377742E-03  6.57297567069337E-19  8.67361737988404E-19
  2.69362890058255E+00  2.79773012506513E+00  2.79773012506513E+00
 Reduced coordinates (xred)
 -7.69415818524401E-04  7.69415818524401E-04 -7.69415818524401E-04
  2.40769415818524E-01  2.59230584181476E-01  2.40769415818524E-01
 Scale of Primitive Cell (acell) [bohr]
  7.91098501464912E+00  7.91317577345376E+00  7.91098501464912E+00
 Real space primitive translations (rprimd) [bohr]
  5.59379373710162E+00  5.59402837662662E+00  1.43187350363949E-03
  0.00000000000000E+00  5.59546025013026E+00  5.59546025013026E+00
  5.59379373710162E+00  1.43187350363947E-03  5.59402837662662E+00
 Unitary Cell Volume (ucvol) [Bohr^3]=  3.50094868946947E+02
 Angles (23,13,12)= [degrees]
  5.99908389330543E+01  5.99844522177039E+01  5.99908389330543E+01
 Lengths [Bohr]
  7.91098501464912E+00  7.91317577345376E+00  7.91098501464912E+00
 
---SELF-CONSISTENT-FIELD CONVERGENCE--------------------------------------------
 
 getcut: wavevector=  0.0000  0.0000  0.0000  ngfft=  32  32  32
         ecut(hartree)=     16.000   => boxcut(ratio)=   2.24582
 
 getcut : COMMENT -
  Note that boxcut > 2.2 ; recall that boxcut=Gcut(box)/Gcut(sphere) = 2
  is sufficient for exact treatment of convolution.
  Such a large boxcut is a waste : you could raise ecut
  e.g. ecut=   20.174747 Hartrees makes boxcut=2
 
 
 ITER STEP NUMBER     1
 vtorho: nnsclo_now=2, note that nnsclo,dbl_nnsclo,istep=0 0 1
 Total charge density [el/Bohr^3]
      Maximum=    7.3016E-02  at reduced coord.    0.1563    0.5000    0.1563
      Minimum=    1.5903E-03  at reduced coord.    0.0000    0.0000    0.0000
   Integrated=    8.0000E+00
 ETOT  1  -8.4423928767272    -8.442E+00 3.912E-01 3.930E+00
 scprqt: <Vxc>= -3.0504354E-01 hartree
 
 Simple mixing update:
  residual square of the potential:    2.91000393006213
 scfcv_core: previous iteration took  0.49 [s]
 
 ITER STEP NUMBER     2
 vtorho: nnsclo_now=2, note that nnsclo,dbl_nnsclo,istep=0 0 2
 Total charge density [el/Bohr^3]
      Maximum=    7.2217E-02  at reduced coord.    0.1563    0.5000    0.1563
      Minimum=    1.5856E-03  at reduced coord.    0.0000    0.0000    0.0000
   Integrated=    8.0000E+00
 ETOT  2  -8.4426477897608    -2.549E-04 3.673E-08 1.753E-01
 scprqt: <Vxc>= -3.0590843E-01 hartree
 
 Pulay update with  1 previous iterations:
 mixing of old trial potential: alpha(m:m-4)=   1.03     -0.337E-01
 scfcv_core: previous iteration took  0.38 [s]
 
 ITER STEP NUMBER     3
 vtorho: nnsclo_now=1, note that nnsclo,dbl_nnsclo,istep=0 0 3
 Total charge density [el/Bohr^3]
      Maximum=    7.2041E-02  at reduced coord.    0.1563    0.5000    0.1563
      Minimum=    1.5847E-03  at reduced coord.    0.0000    0.0000    0.0000
   Integrated=    8.0000E+00
 ETOT  3  -8.4426705844841    -2.279E-05 1.184E-07 2.790E-02
 scprqt: <Vxc>= -3.0618124E-01 hartree
 
 Pulay update with  2 previous iterations:
 mixing of old trial potential: alpha(m:m-4)=   1.64     -0.649      0.567E-02
 scfcv_core: previous iteration took  0.23 [s]
 
 ITER STEP NUMBER     4
 vtorho: nnsclo_now=1, note that nnsclo,dbl_nnsclo,istep=0 0 4
 Total charge density [el/Bohr^3]
      Maximum=    7.1966E-02  at reduced coord.    0.1563    0.5000    0.1563
      Minimum=    1.5845E-03  at reduced coord.    0.0000    0.0000    0.0000
   Integrated=    8.0000E+00
 ETOT  4  -8.4426739485668    -3.364E-06 3.508E-08 1.922E-04
 scprqt: <Vxc>= -3.0633672E-01 hartree
 
 Pulay update with  3 previous iterations:
 mixing of old trial potential: alpha(m:m-4)=   1.32     -0.488      0.166     -0.868E-03
 scfcv_core: previous iteration took  0.24 [s]
 
 ITER STEP NUMBER     5
 vtorho: nnsclo_now=1, note that nnsclo,dbl_nnsclo,istep=0 0 5
 Total charge density [el/Bohr^3]
      Maximum=    7.1968E-02  at reduced coord.    0.1563    0.5000    0.1563
      Minimum=    1.5845E-03  at reduced coord.    0.0000    0.0000    0.0000
   Integrated=    8.0000E+00
 ETOT  5  -8.4426739597787    -1.121E-08 1.138E-10 4.961E-07
 scprqt: <Vxc>= -3.0634243E-01 hartree
 
 Pulay update with  4 previous iterations:
 mixing of old trial potential: alpha(m:m-4)=   1.18     -0.233      0.786E-01 -0.267E-01  0.117E-03
 scfcv_core: previous iteration took  0.23 [s]
 
 ITER STEP NUMBER     6
 vtorho: nnsclo_now=1, note that nnsclo,dbl_nnsclo,istep=0 0 6
 Total charge density [el/Bohr^3]
      Maximum=    7.1968E-02  at reduced coord.    0.1563    0.5000    0.1563
      Minimum=    1.5845E-03  at reduced coord.    0.0000    0.0000    0.0000
   Integrated=    8.0000E+00
 ETOT  6  -8.4426739598344    -5.575E-11 2.780E-12 6.947E-09
 scprqt: <Vxc>= -3.0634271E-01 hartree
 
 Pulay update with  5 previous iterations:
 mixing of old trial potential: alpha(m:m-4)=   1.12     -0.130      0.157E-01 -0.585E-02  0.215E-02
 scfcv_core: previous iteration took  0.23 [s]
 
 ITER STEP NUMBER     7
 vtorho: nnsclo_now=1, note that nnsclo,dbl_nnsclo,istep=0 0 7
 Total charge density [el/Bohr^3]
      Maximum=    7.1968E-02  at reduced coord.    0.1563    0.5000    0.1563
      Minimum=    1.5845E-03  at reduced coord.    0.0000    0.0000    0.0000
   Integrated=    8.0000E+00
 ETOT  7  -8.4426739598353    -8.153E-13 4.734E-14 1.562E-10
 scprqt: <Vxc>= -3.0634266E-01 hartree
 
 Pulay update with  6 previous iterations:
 mixing of old trial potential: alpha(m:m-4)=   1.20     -0.205      0.495E-02  0.129E-03  0.737E-04
 scfcv_core: previous iteration took  0.22 [s]
 
 ITER STEP NUMBER     8
 vtorho: nnsclo_now=1, note that nnsclo,dbl_nnsclo,istep=0 0 8
 Total charge density [el/Bohr^3]
      Maximum=    7.1968E-02  at reduced coord.    0.1563    0.5000    0.1563
      Minimum=    1.5845E-03  at reduced coord.    0.0000    0.0000    0.0000
   Integrated=    8.0000E+00
 ETOT  8  -8.4426739598353     5.329E-15 4.533E-15 2.845E-12
 scprqt: <Vxc>= -3.0634266E-01 hartree
 
 Pulay update with  7 previous iterations:
 mixing of old trial potential: alpha(m:m-4)=   1.18     -0.211      0.295E-01 -0.608E-03 -0.165E-04
 scfcv_core: previous iteration took  0.29 [s]
 
 ITER STEP NUMBER     9
 vtorho: nnsclo_now=1, note that nnsclo,dbl_nnsclo,istep=0 0 9
 Total charge density [el/Bohr^3]
      Maximum=    7.1968E-02  at reduced coord.    0.1563    0.5000    0.1563
      Minimum=    1.5845E-03  at reduced coord.    0.0000    0.0000    0.0000
   Integrated=    8.0000E+00
 ETOT  9  -8.4426739598353    -1.421E-14 1.137E-16 2.410E-13
 scprqt: <Vxc>= -3.0634266E-01 hartree
 
 Pulay update with  7 previous iterations:
 mixing of old trial potential: alpha(m:m-4)=   1.35     -0.390      0.466E-01 -0.619E-02 -0.472E-04
 scfcv_core: previous iteration took  0.24 [s]
 
 ITER STEP NUMBER    10
 vtorho: nnsclo_now=1, note that nnsclo,dbl_nnsclo,istep=0 0 10
 Total charge density [el/Bohr^3]
      Maximum=    7.1968E-02  at reduced coord.    0.1563    0.5000    0.1563
      Minimum=    1.5845E-03  at reduced coord.    0.0000    0.0000    0.0000
   Integrated=    8.0000E+00
 ETOT 10  -8.4426739598353    -7.105E-15 1.392E-17 1.403E-14
 scprqt: <Vxc>= -3.0634266E-01 hartree
 
 Pulay update with  7 previous iterations:
 mixing of old trial potential: alpha(m:m-4)=   1.39     -0.449      0.591E-01 -0.316E-02  0.446E-03
 scfcv_core: previous iteration took  0.24 [s]
 
 ITER STEP NUMBER    11
 vtorho: nnsclo_now=1, note that nnsclo,dbl_nnsclo,istep=0 0 11
 Total charge density [el/Bohr^3]
      Maximum=    7.1968E-02  at reduced coord.    0.1563    0.5000    0.1563
      Minimum=    1.5845E-03  at reduced coord.    0.0000    0.0000    0.0000
   Integrated=    8.0000E+00
 ETOT 11  -8.4426739598353     1.421E-14 3.996E-19 1.302E-16
 scprqt: <Vxc>= -3.0634266E-01 hartree
 
 Pulay update with  7 previous iterations:
 mixing of old trial potential: alpha(m:m-4)=   1.20     -0.249      0.521E-01 -0.214E-02 -0.593E-03
 scfcv_core: previous iteration took  0.24 [s]
 
 ITER STEP NUMBER    12
 vtorho: nnsclo_now=1, note that nnsclo,dbl_nnsclo,istep=0 0 12
 Total charge density [el/Bohr^3]
      Maximum=    7.1968E-02  at reduced coord.    0.1563    0.5000    0.1563
      Minimum=    1.5845E-03  at reduced coord.    0.0000    0.0000    0.0000
   Integrated=    8.0000E+00
 ETOT 12  -8.4426739598353    -4.441E-14 4.960E-20 5.721E-18
 scprqt: <Vxc>= -3.0634266E-01 hartree
 
 At SCF step   12       vres2   =  5.72E-18 < tolvrs=  1.00E-16 =>converged.
 
 Cartesian components of stress tensor (hartree/bohr^3)
  sigma(1 1)=  4.17728957E-04  sigma(3 2)= -7.34031592E-06
  sigma(2 2)=  4.16510094E-04  sigma(3 1)=  0.00000000E+00
  sigma(3 3)=  4.16510094E-04  sigma(2 1)=  0.00000000E+00
 
 
   fftdatar_write: About to write data to: opto_TIM2_DEN with iomode: IO_MODE_FORTRAN
 IO operation completed. cpu:  0.00 [s] , wall:  0.01 [s]
- Creating HDf5 file with MPI-IO support: opto_GSR.nc
 Write iteration in HIST netCDF file
 
---OUTPUT-----------------------------------------------------------------------
 
 Cartesian coordinates (xcart) [bohr]
 -8.60790677377742E-03  6.57297567069337E-19  8.67361737988404E-19
  2.69362890058255E+00  2.79773012506513E+00  2.79773012506513E+00
 Reduced coordinates (xred)
 -7.69415818524401E-04  7.69415818524401E-04 -7.69415818524401E-04
  2.40769415818524E-01  2.59230584181476E-01  2.40769415818524E-01
 Cartesian forces (fcart) [Ha/bohr]; max,rms= 7.91201E-03 4.56800E-03 (free atoms)
 -7.91200500759204E-03  0.00000000000000E+00  0.00000000000000E+00
  7.91200500759204E-03  0.00000000000000E+00  0.00000000000000E+00
 Reduced forces (fred)
  4.42581240593850E-02  0.00000000000000E+00  4.42581240593850E-02
 -4.42581240593850E-02  0.00000000000000E+00 -4.42581240593850E-02
 Scale of Primitive Cell (acell) [bohr]
  7.91098501464912E+00  7.91317577345376E+00  7.91098501464912E+00
 Real space primitive translations (rprimd) [bohr]
  5.59379373710162E+00  5.59402837662662E+00  1.43187350363949E-03
  0.00000000000000E+00  5.59546025013026E+00  5.59546025013026E+00
  5.59379373710162E+00  1.43187350363947E-03  5.59402837662662E+00
 Unitary Cell Volume (ucvol) [Bohr^3]=  3.50094868946947E+02
 Angles (23,13,12)= [degrees]
  5.99908389330543E+01  5.99844522177039E+01  5.99908389330543E+01
 Lengths [Bohr]
  7.91098501464912E+00  7.91317577345376E+00  7.91098501464912E+00
 Stress tensor in cartesian coordinates (strten) [Ha/bohr^3]
  4.17728956812350E-04  0.00000000000000E+00  0.00000000000000E+00
  0.00000000000000E+00  4.16510093761403E-04 -7.34031591859911E-06
  0.00000000000000E+00 -7.34031591859911E-06  4.16510093761404E-04
 Total energy (etotal) [Ha]= -8.44267395983530E+00
 
 Difference of energy with previous step (new-old):
           Absolute (Ha)=-6.30841E-03
           Relative     =-7.47484E-04
 fconv : at Broyd/MD step   2, gradients have not converged yet. 
  max grad (force/stress) = 4.1773E-02 > tolmxf= 1.0000E-09 ha/bohr (free atoms)
 
 EXIT:           1           1
 mover: previous time step took  3.77 [s]
 
--- Iteration: (  3/100) Internal Cycle: (1/1)
--------------------------------------------------------------------------------
 
 Cartesian coordinates (xcart) [bohr]
 -7.84588283962827E-02  5.50232602536394E-18  0.00000000000000E+00
  2.41694486478068E+00  2.45049064049263E+00  2.45049064049263E+00
 Reduced coordinates (xred)
 -8.05226908441227E-03  8.05226908441227E-03 -8.05226908441227E-03
  2.48052269084412E-01  2.51947730915588E-01  2.48052269084412E-01
 Scale of Primitive Cell (acell) [bohr]
  6.89153838057845E+00  6.93103419650603E+00  6.89153838057845E+00
 Real space primitive translations (rprimd) [bohr]
  4.87184590913416E+00  4.87418719022350E+00  2.67940907617598E-02
  0.00000000000000E+00  4.90098128098526E+00  4.90098128098526E+00
  4.87184590913416E+00  2.67940907617599E-02  4.87418719022350E+00
 Unitary Cell Volume (ucvol) [Bohr^3]=  2.31480719344717E+02
 Angles (23,13,12)= [degrees]
  5.98102363021512E+01  5.96519235540493E+01  5.98102363021512E+01
 Lengths [Bohr]
  6.89153838057845E+00  6.93103419650603E+00  6.89153838057845E+00
 
---SELF-CONSISTENT-FIELD CONVERGENCE--------------------------------------------
 
 getcut: wavevector=  0.0000  0.0000  0.0000  ngfft=  32  32  32
         ecut(hartree)=     16.000   => boxcut(ratio)=   2.56405
 
 getcut : COMMENT -
  Note that boxcut > 2.2 ; recall that boxcut=Gcut(box)/Gcut(sphere) = 2
  is sufficient for exact treatment of convolution.
  Such a large boxcut is a waste : you could raise ecut
  e.g. ecut=   26.297450 Hartrees makes boxcut=2
 
 
 ITER STEP NUMBER     1
 vtorho: nnsclo_now=2, note that nnsclo,dbl_nnsclo,istep=0 0 1
 Total charge density [el/Bohr^3]
      Maximum=    1.1651E-01  at reduced coord.    0.1250    0.1250    0.6250
      Minimum=    1.5195E-03  at reduced coord.    0.2500    0.2500    0.2500
   Integrated=    8.0000E+00
 ETOT  1  -8.4276984836730    -8.428E+00 2.380E+00 1.208E+02
 scprqt: <Vxc>= -3.5423548E-01 hartree
 
 Simple mixing update:
  residual square of the potential:    45.7132204961842
 scfcv_core: previous iteration took  0.49 [s]
 
 ITER STEP NUMBER     2
 vtorho: nnsclo_now=2, note that nnsclo,dbl_nnsclo,istep=0 0 2
 Total charge density [el/Bohr^3]
      Maximum=    1.0377E-01  at reduced coord.    0.1250    0.1250    0.6250
      Minimum=    1.4748E-03  at reduced coord.    0.2500    0.2500    0.2500
   Integrated=    8.0000E+00
 ETOT  2  -8.4462121699509    -1.851E-02 2.655E-07 7.885E+00
 scprqt: <Vxc>= -3.6115959E-01 hartree
 
 Pulay update with  1 previous iterations:
 mixing of old trial potential: alpha(m:m-4)=   1.25     -0.245
 scfcv_core: previous iteration took  0.42 [s]
 
 ITER STEP NUMBER     3
 vtorho: nnsclo_now=1, note that nnsclo,dbl_nnsclo,istep=0 0 3
 Total charge density [el/Bohr^3]
      Maximum=    1.0202E-01  at reduced coord.    0.1250    0.1250    0.6250
      Minimum=    1.4677E-03  at reduced coord.    0.2500    0.2500    0.2500
   Integrated=    8.0000E+00
 ETOT  3  -8.4471826129579    -9.704E-04 7.455E-06 2.031E-01
 scprqt: <Vxc>= -3.6300101E-01 hartree
 
 Pulay update with  2 previous iterations:
 mixing of old trial potential: alpha(m:m-4)=   1.28     -0.322      0.384E-01
 scfcv_core: previous iteration took  0.27 [s]
 
 ITER STEP NUMBER     4
 vtorho: nnsclo_now=1, note that nnsclo,dbl_nnsclo,istep=0 0 4
 Total charge density [el/Bohr^3]
      Maximum=    1.0197E-01  at reduced coord.    0.1250    0.1250    0.6250
      Minimum=    1.4688E-03  at reduced coord.    0.2500    0.2500    0.2500
   Integrated=    8.0000E+00
 ETOT  4  -8.4471980642473    -1.545E-05 1.205E-07 1.345E-03
 scprqt: <Vxc>= -3.6323159E-01 hartree
 
 Pulay update with  3 previous iterations:
 mixing of old trial potential: alpha(m:m-4)=   1.14     -0.155      0.194E-01 -0.196E-02
 scfcv_core: previous iteration took  0.21 [s]
 
 ITER STEP NUMBER     5
 vtorho: nnsclo_now=1, note that nnsclo,dbl_nnsclo,istep=0 0 5
 Total charge density [el/Bohr^3]
      Maximum=    1.0196E-01  at reduced coord.    0.1250    0.1250    0.6250
      Minimum=    1.4688E-03  at reduced coord.    0.2500    0.2500    0.2500
   Integrated=    8.0000E+00
 ETOT  5  -8.4471981349346    -7.069E-08 5.541E-10 7.046E-06
 scprqt: <Vxc>= -3.6324619E-01 hartree
 
 Pulay update with  4 previous iterations:
 mixing of old trial potential: alpha(m:m-4)=   1.16     -0.170      0.135E-01 -0.209E-03 -0.956E-05
 scfcv_core: previous iteration took  0.25 [s]
 
 ITER STEP NUMBER     6
 vtorho: nnsclo_now=1, note that nnsclo,dbl_nnsclo,istep=0 0 6
 Total charge density [el/Bohr^3]
      Maximum=    1.0196E-01  at reduced coord.    0.1250    0.1250    0.6250
      Minimum=    1.4688E-03  at reduced coord.    0.2500    0.2500    0.2500
   Integrated=    8.0000E+00
 ETOT  6  -8.4471981353223    -3.877E-10 2.332E-12 5.868E-08
 scprqt: <Vxc>= -3.6324578E-01 hartree
 
 Pulay update with  5 previous iterations:
 mixing of old trial potential: alpha(m:m-4)=   1.13     -0.139      0.139E-01 -0.637E-03 -0.118E-03
 scfcv_core: previous iteration took  0.28 [s]
 
 ITER STEP NUMBER     7
 vtorho: nnsclo_now=1, note that nnsclo,dbl_nnsclo,istep=0 0 7
 Total charge density [el/Bohr^3]
      Maximum=    1.0196E-01  at reduced coord.    0.1250    0.1250    0.6250
      Minimum=    1.4688E-03  at reduced coord.    0.2500    0.2500    0.2500
   Integrated=    8.0000E+00
 ETOT  7  -8.4471981353262    -3.935E-12 1.038E-13 1.167E-09
 scprqt: <Vxc>= -3.6324579E-01 hartree
 
 Pulay update with  6 previous iterations:
 mixing of old trial potential: alpha(m:m-4)=   1.09     -0.860E-01 -0.304E-02  0.102E-02 -0.168E-03
 scfcv_core: previous iteration took  0.24 [s]
 
 ITER STEP NUMBER     8
 vtorho: nnsclo_now=1, note that nnsclo,dbl_nnsclo,istep=0 0 8
 Total charge density [el/Bohr^3]
      Maximum=    1.0196E-01  at reduced coord.    0.1250    0.1250    0.6250
      Minimum=    1.4688E-03  at reduced coord.    0.2500    0.2500    0.2500
   Integrated=    8.0000E+00
 ETOT  8  -8.4471981353263    -7.105E-14 5.044E-15 4.540E-11
 scprqt: <Vxc>= -3.6324579E-01 hartree
 
 Pulay update with  7 previous iterations:
 mixing of old trial potential: alpha(m:m-4)=   1.21     -0.217      0.457E-02  0.179E-02 -0.335E-03
 scfcv_core: previous iteration took  0.26 [s]
 
 ITER STEP NUMBER     9
 vtorho: nnsclo_now=1, note that nnsclo,dbl_nnsclo,istep=0 0 9
 Total charge density [el/Bohr^3]
      Maximum=    1.0196E-01  at reduced coord.    0.1250    0.1250    0.6250
      Minimum=    1.4688E-03  at reduced coord.    0.2500    0.2500    0.2500
   Integrated=    8.0000E+00
 ETOT  9  -8.4471981353263    -4.796E-14 3.132E-16 2.123E-12
 scprqt: <Vxc>= -3.6324579E-01 hartree
 
 Pulay update with  7 previous iterations:
 mixing of old trial potential: alpha(m:m-4)=   1.32     -0.342      0.235E-01  0.228E-02 -0.536E-03
 scfcv_core: previous iteration took  0.25 [s]
 
 ITER STEP NUMBER    10
 vtorho: nnsclo_now=1, note that nnsclo,dbl_nnsclo,istep=0 0 10
 Total charge density [el/Bohr^3]
      Maximum=    1.0196E-01  at reduced coord.    0.1250    0.1250    0.6250
      Minimum=    1.4688E-03  at reduced coord.    0.2500    0.2500    0.2500
   Integrated=    8.0000E+00
 ETOT 10  -8.4471981353263     4.619E-14 3.086E-17 2.108E-14
 scprqt: <Vxc>= -3.6324579E-01 hartree
 
 Pulay update with  7 previous iterations:
 mixing of old trial potential: alpha(m:m-4)=   1.17     -0.198      0.332E-01 -0.887E-03 -0.270E-03
 scfcv_core: previous iteration took  0.27 [s]
 
 ITER STEP NUMBER    11
 vtorho: nnsclo_now=1, note that nnsclo,dbl_nnsclo,istep=0 0 11
 Total charge density [el/Bohr^3]
      Maximum=    1.0196E-01  at reduced coord.    0.1250    0.1250    0.6250
      Minimum=    1.4688E-03  at reduced coord.    0.2500    0.2500    0.2500
   Integrated=    8.0000E+00
 ETOT 11  -8.4471981353263    -1.954E-14 4.804E-19 9.408E-16
 scprqt: <Vxc>= -3.6324579E-01 hartree
 
 Pulay update with  7 previous iterations:
 mixing of old trial potential: alpha(m:m-4)=   1.30     -0.321      0.256E-01 -0.161E-02 -0.383E-03
 scfcv_core: previous iteration took  0.22 [s]
 
 ITER STEP NUMBER    12
 vtorho: nnsclo_now=1, note that nnsclo,dbl_nnsclo,istep=0 0 12
 Total charge density [el/Bohr^3]
      Maximum=    1.0196E-01  at reduced coord.    0.1250    0.1250    0.6250
      Minimum=    1.4688E-03  at reduced coord.    0.2500    0.2500    0.2500
   Integrated=    8.0000E+00
 ETOT 12  -8.4471981353263     1.954E-14 2.346E-20 2.311E-17
 scprqt: <Vxc>= -3.6324579E-01 hartree
 
 At SCF step   12       vres2   =  2.31E-17 < tolvrs=  1.00E-16 =>converged.
 
 Cartesian components of stress tensor (hartree/bohr^3)
  sigma(1 1)= -7.65455973E-04  sigma(3 2)=  1.49897219E-04
  sigma(2 2)= -7.69007115E-04  sigma(3 1)=  0.00000000E+00
  sigma(3 3)= -7.69007115E-04  sigma(2 1)=  0.00000000E+00
 
 
   fftdatar_write: About to write data to: opto_TIM3_DEN with iomode: IO_MODE_FORTRAN
 IO operation completed. cpu:  0.00 [s] , wall:  0.00 [s]
- Creating HDf5 file with MPI-IO support: opto_GSR.nc
 Write iteration in HIST netCDF file
 
---OUTPUT-----------------------------------------------------------------------
 
 Cartesian coordinates (xcart) [bohr]
 -7.84588283962827E-02  5.50232602536394E-18  0.00000000000000E+00
  2.41694486478068E+00  2.45049064049263E+00  2.45049064049263E+00
 Reduced coordinates (xred)
 -8.05226908441227E-03  8.05226908441227E-03 -8.05226908441227E-03
  2.48052269084412E-01  2.51947730915588E-01  2.48052269084412E-01
 Cartesian forces (fcart) [Ha/bohr]; max,rms= 1.51231E-02 8.73131E-03 (free atoms)
  1.51230724454473E-02  1.73472347597681E-18 -1.73472347597681E-18
 -1.51230724454473E-02 -1.73472347597681E-18  1.73472347597681E-18
 Reduced forces (fred)
 -7.36772786268917E-02  0.00000000000000E+00 -7.36772786268917E-02
  7.36772786268917E-02  0.00000000000000E+00  7.36772786268917E-02
 Scale of Primitive Cell (acell) [bohr]
  6.89153838057845E+00  6.93103419650603E+00  6.89153838057845E+00
 Real space primitive translations (rprimd) [bohr]
  4.87184590913416E+00  4.87418719022350E+00  2.67940907617598E-02
  0.00000000000000E+00  4.90098128098526E+00  4.90098128098526E+00
  4.87184590913416E+00  2.67940907617599E-02  4.87418719022350E+00
 Unitary Cell Volume (ucvol) [Bohr^3]=  2.31480719344717E+02
 Angles (23,13,12)= [degrees]
  5.98102363021512E+01  5.96519235540493E+01  5.98102363021512E+01
 Lengths [Bohr]
  6.89153838057845E+00  6.93103419650603E+00  6.89153838057845E+00
 Stress tensor in cartesian coordinates (strten) [Ha/bohr^3]
 -7.65455973460537E-04  0.00000000000000E+00  0.00000000000000E+00
  0.00000000000000E+00 -7.69007114925827E-04  1.49897218601324E-04
  0.00000000000000E+00  1.49897218601324E-04 -7.69007114925827E-04
 Total energy (etotal) [Ha]= -8.44719813532627E+00
 
 Difference of energy with previous step (new-old):
           Absolute (Ha)=-4.52418E-03
           Relative     =-5.35726E-04
 fconv : at Broyd/MD step   3, gradients have not converged yet. 
  max grad (force/stress) = 7.6901E-02 > tolmxf= 1.0000E-09 ha/bohr (free atoms)
 
 EXIT:           1           1
 mover: previous time step took  3.82 [s]
 
--- Iteration: (  4/100) Internal Cycle: (1/1)
--------------------------------------------------------------------------------
 
 Cartesian coordinates (xcart) [bohr]
 -4.11706843019745E-02  1.45139095512024E-18 -1.04083408558608E-17
  2.57024844065133E+00  2.63501270138677E+00  2.63501270138677E+00
 Reduced coordinates (xred)
 -3.90694363100040E-03  3.90694363100040E-03 -3.90694363100040E-03
  2.43906943631000E-01  2.56093056369000E-01  2.43906943631000E-01
 Scale of Primitive Cell (acell) [bohr]
  7.45240096260930E+00  7.45294139865307E+00  7.45240096260930E+00
 Real space primitive translations (rprimd) [bohr]
  5.26891199239449E+00  5.27037440815136E+00 -3.49005377822767E-04
  0.00000000000000E+00  5.27002540277354E+00  5.27002540277354E+00
  5.26891199239449E+00 -3.49005377822852E-04  5.27037440815136E+00
 Unitary Cell Volume (ucvol) [Bohr^3]=  2.92707516954258E+02
 Angles (23,13,12)= [degrees]
  5.99976010823092E+01  6.00135616460855E+01  5.99976010823092E+01
 Lengths [Bohr]
  7.45240096260930E+00  7.45294139865307E+00  7.45240096260930E+00
 
---SELF-CONSISTENT-FIELD CONVERGENCE--------------------------------------------
 
 getcut: wavevector=  0.0000  0.0000  0.0000  ngfft=  32  32  32
         ecut(hartree)=     16.000   => boxcut(ratio)=   2.38450
 
 getcut : COMMENT -
  Note that boxcut > 2.2 ; recall that boxcut=Gcut(box)/Gcut(sphere) = 2
  is sufficient for exact treatment of convolution.
  Such a large boxcut is a waste : you could raise ecut
  e.g. ecut=   22.743343 Hartrees makes boxcut=2
 
 
 ITER STEP NUMBER     1
 vtorho: nnsclo_now=2, note that nnsclo,dbl_nnsclo,istep=0 0 1
 Total charge density [el/Bohr^3]
      Maximum=    7.5093E-02  at reduced coord.    0.0938    0.7188    0.0938
      Minimum=    1.5599E-03  at reduced coord.    0.0000    0.0000    0.0000
   Integrated=    8.0000E+00
 ETOT  1  -8.4528042666980    -8.453E+00 5.616E-07 6.460E+01
 scprqt: <Vxc>= -3.3613605E-01 hartree
 
 Simple mixing update:
  residual square of the potential:    36.2911846839383
 scfcv_core: previous iteration took  0.51 [s]
 
 ITER STEP NUMBER     2
 vtorho: nnsclo_now=2, note that nnsclo,dbl_nnsclo,istep=0 0 2
 Total charge density [el/Bohr^3]
      Maximum=    7.9514E-02  at reduced coord.    0.0938    0.7188    0.0938
      Minimum=    1.5807E-03  at reduced coord.    0.0000    0.0000    0.0000
   Integrated=    8.0000E+00
 ETOT  2  -8.4605598485302    -7.756E-03 1.020E-07 3.352E+00
 scprqt: <Vxc>= -3.3197255E-01 hartree
 
 Pulay update with  1 previous iterations:
 mixing of old trial potential: alpha(m:m-4)=   1.08     -0.817E-01
 scfcv_core: previous iteration took  0.40 [s]
 
 ITER STEP NUMBER     3
 vtorho: nnsclo_now=1, note that nnsclo,dbl_nnsclo,istep=0 0 3
 Total charge density [el/Bohr^3]
      Maximum=    8.0396E-02  at reduced coord.    0.0938    0.7188    0.0938
      Minimum=    1.5808E-03  at reduced coord.    0.0000    0.0000    0.0000
   Integrated=    8.0000E+00
 ETOT  3  -8.4609871795339    -4.273E-04 2.125E-06 3.490E-01
 scprqt: <Vxc>= -3.3084329E-01 hartree
 
 Pulay update with  2 previous iterations:
 mixing of old trial potential: alpha(m:m-4)=   1.48     -0.486      0.696E-02
 scfcv_core: previous iteration took  0.27 [s]
 
 ITER STEP NUMBER     4
 vtorho: nnsclo_now=1, note that nnsclo,dbl_nnsclo,istep=0 0 4
 Total charge density [el/Bohr^3]
      Maximum=    8.0641E-02  at reduced coord.    0.0938    0.7188    0.0938
      Minimum=    1.5808E-03  at reduced coord.    0.0000    0.0000    0.0000
   Integrated=    8.0000E+00
 ETOT  4  -8.4610246989933    -3.752E-05 3.039E-07 2.102E-03
 scprqt: <Vxc>= -3.3038449E-01 hartree
 
 Pulay update with  3 previous iterations:
 mixing of old trial potential: alpha(m:m-4)=   1.27     -0.373      0.100     -0.720E-03
 scfcv_core: previous iteration took  0.24 [s]
 
 ITER STEP NUMBER     5
 vtorho: nnsclo_now=1, note that nnsclo,dbl_nnsclo,istep=0 0 5
 Total charge density [el/Bohr^3]
      Maximum=    8.0638E-02  at reduced coord.    0.0938    0.7188    0.0938
      Minimum=    1.5811E-03  at reduced coord.    0.0000    0.0000    0.0000
   Integrated=    8.0000E+00
 ETOT  5  -8.4610248073692    -1.084E-07 7.526E-10 4.693E-06
 scprqt: <Vxc>= -3.3036522E-01 hartree
 
 Pulay update with  4 previous iterations:
 mixing of old trial potential: alpha(m:m-4)=   1.15     -0.181      0.474E-01 -0.118E-01  0.506E-04
 scfcv_core: previous iteration took  0.26 [s]
 
 ITER STEP NUMBER     6
 vtorho: nnsclo_now=1, note that nnsclo,dbl_nnsclo,istep=0 0 6
 Total charge density [el/Bohr^3]
      Maximum=    8.0639E-02  at reduced coord.    0.0938    0.7188    0.0938
      Minimum=    1.5811E-03  at reduced coord.    0.0000    0.0000    0.0000
   Integrated=    8.0000E+00
 ETOT  6  -8.4610248078055    -4.363E-10 4.473E-12 5.067E-08
 scprqt: <Vxc>= -3.3036542E-01 hartree
 
 Pulay update with  5 previous iterations:
 mixing of old trial potential: alpha(m:m-4)=   1.15     -0.165      0.205E-01 -0.584E-02  0.147E-02
 scfcv_core: previous iteration took  0.30 [s]
 
 ITER STEP NUMBER     7
 vtorho: nnsclo_now=1, note that nnsclo,dbl_nnsclo,istep=0 0 7
 Total charge density [el/Bohr^3]
      Maximum=    8.0639E-02  at reduced coord.    0.0938    0.7188    0.0938
      Minimum=    1.5811E-03  at reduced coord.    0.0000    0.0000    0.0000
   Integrated=    8.0000E+00
 ETOT  7  -8.4610248078089    -3.421E-12 7.577E-14 1.364E-09
 scprqt: <Vxc>= -3.3036544E-01 hartree
 
 Pulay update with  6 previous iterations:
 mixing of old trial potential: alpha(m:m-4)=   1.20     -0.209      0.145E-01 -0.170E-02  0.526E-03
 scfcv_core: previous iteration took  0.29 [s]
 
 ITER STEP NUMBER     8
 vtorho: nnsclo_now=1, note that nnsclo,dbl_nnsclo,istep=0 0 8
 Total charge density [el/Bohr^3]
      Maximum=    8.0639E-02  at reduced coord.    0.0938    0.7188    0.0938
      Minimum=    1.5811E-03  at reduced coord.    0.0000    0.0000    0.0000
   Integrated=    8.0000E+00
 ETOT  8  -8.4610248078090    -1.492E-13 7.533E-15 5.554E-11
 scprqt: <Vxc>= -3.3036544E-01 hartree
 
 Pulay update with  7 previous iterations:
 mixing of old trial potential: alpha(m:m-4)=   1.20     -0.232      0.278E-01 -0.596E-03  0.739E-04
 scfcv_core: previous iteration took  0.24 [s]
 
 ITER STEP NUMBER     9
 vtorho: nnsclo_now=1, note that nnsclo,dbl_nnsclo,istep=0 0 9
 Total charge density [el/Bohr^3]
      Maximum=    8.0639E-02  at reduced coord.    0.0938    0.7188    0.0938
      Minimum=    1.5811E-03  at reduced coord.    0.0000    0.0000    0.0000
   Integrated=    8.0000E+00
 ETOT  9  -8.4610248078091    -3.553E-14 7.549E-16 4.957E-12
 scprqt: <Vxc>= -3.3036544E-01 hartree
 
 Pulay update with  7 previous iterations:
 mixing of old trial potential: alpha(m:m-4)=   1.45     -0.492      0.474E-01 -0.473E-02 -0.184E-03
 scfcv_core: previous iteration took  0.23 [s]
 
 ITER STEP NUMBER    10
 vtorho: nnsclo_now=1, note that nnsclo,dbl_nnsclo,istep=0 0 10
 Total charge density [el/Bohr^3]
      Maximum=    8.0639E-02  at reduced coord.    0.0938    0.7188    0.0938
      Minimum=    1.5811E-03  at reduced coord.    0.0000    0.0000    0.0000
   Integrated=    8.0000E+00
 ETOT 10  -8.4610248078090     3.375E-14 1.315E-16 5.232E-14
 scprqt: <Vxc>= -3.3036544E-01 hartree
 
 Pulay update with  7 previous iterations:
 mixing of old trial potential: alpha(m:m-4)=   1.21     -0.266      0.571E-01 -0.401E-02  0.503E-03
 scfcv_core: previous iteration took  0.24 [s]
 
 ITER STEP NUMBER    11
 vtorho: nnsclo_now=1, note that nnsclo,dbl_nnsclo,istep=0 0 11
 Total charge density [el/Bohr^3]
      Maximum=    8.0639E-02  at reduced coord.    0.0938    0.7188    0.0938
      Minimum=    1.5811E-03  at reduced coord.    0.0000    0.0000    0.0000
   Integrated=    8.0000E+00
 ETOT 11  -8.4610248078090    -2.487E-14 1.492E-18 2.663E-16
 scprqt: <Vxc>= -3.3036544E-01 hartree
 
 Pulay update with  7 previous iterations:
 mixing of old trial potential: alpha(m:m-4)=   1.15     -0.171      0.241E-01 -0.293E-02  0.246E-04
 scfcv_core: previous iteration took  0.21 [s]
 
 ITER STEP NUMBER    12
 vtorho: nnsclo_now=1, note that nnsclo,dbl_nnsclo,istep=0 0 12
 Total charge density [el/Bohr^3]
      Maximum=    8.0639E-02  at reduced coord.    0.0938    0.7188    0.0938
      Minimum=    1.5811E-03  at reduced coord.    0.0000    0.0000    0.0000
   Integrated=    8.0000E+00
 ETOT 12  -8.4610248078090     8.882E-15 3.134E-21 1.470E-17
 scprqt: <Vxc>= -3.3036544E-01 hartree
 
 At SCF step   12       vres2   =  1.47E-17 < tolvrs=  1.00E-16 =>converged.
 
 Cartesian components of stress tensor (hartree/bohr^3)
  sigma(1 1)=  1.55342307E-04  sigma(3 2)= -1.07744156E-05
  sigma(2 2)=  1.56015688E-04  sigma(3 1)=  0.00000000E+00
  sigma(3 3)=  1.56015688E-04  sigma(2 1)=  0.00000000E+00
 
 
   fftdatar_write: About to write data to: opto_TIM4_DEN with iomode: IO_MODE_FORTRAN
 IO operation completed. cpu:  0.00 [s] , wall:  0.00 [s]
- Creating HDf5 file with MPI-IO support: opto_GSR.nc
 Write iteration in HIST netCDF file
 
---OUTPUT-----------------------------------------------------------------------
 
 Cartesian coordinates (xcart) [bohr]
 -4.11706843019745E-02  1.45139095512024E-18 -1.04083408558608E-17
  2.57024844065133E+00  2.63501270138677E+00  2.63501270138677E+00
 Reduced coordinates (xred)
 -3.90694363100040E-03  3.90694363100040E-03 -3.90694363100040E-03
  2.43906943631000E-01  2.56093056369000E-01  2.43906943631000E-01
 Cartesian forces (fcart) [Ha/bohr]; max,rms= 2.78079E-03 1.60549E-03 (free atoms)
 -2.78078594023637E-03  1.08420217248550E-19 -1.08420217248550E-19
  2.78078594023637E-03 -1.08420217248550E-19  1.08420217248550E-19
 Reduced forces (fred)
  1.46517163887934E-02  0.00000000000000E+00  1.46517163887934E-02
 -1.46517163887934E-02  0.00000000000000E+00 -1.46517163887934E-02
 Scale of Primitive Cell (acell) [bohr]
  7.45240096260930E+00  7.45294139865307E+00  7.45240096260930E+00
 Real space primitive translations (rprimd) [bohr]
  5.26891199239449E+00  5.27037440815136E+00 -3.49005377822767E-04
  0.00000000000000E+00  5.27002540277354E+00  5.27002540277354E+00
  5.26891199239449E+00 -3.49005377822852E-04  5.27037440815136E+00
 Unitary Cell Volume (ucvol) [Bohr^3]=  2.92707516954258E+02
 Angles (23,13,12)= [degrees]
  5.99976010823092E+01  6.00135616460855E+01  5.99976010823092E+01
 Lengths [Bohr]
  7.45240096260930E+00  7.45294139865307E+00  7.45240096260930E+00
 Stress tensor in cartesian coordinates (strten) [Ha/bohr^3]
  1.55342307485351E-04  0.00000000000000E+00  0.00000000000000E+00
  0.00000000000000E+00  1.56015688425189E-04 -1.07744156391703E-05
  0.00000000000000E+00 -1.07744156391703E-05  1.56015688425190E-04
 Total energy (etotal) [Ha]= -8.46102480780904E+00
 
 Difference of energy with previous step (new-old):
           Absolute (Ha)=-1.38267E-02
           Relative     =-1.63550E-03
 fconv : at Broyd/MD step   4, gradients have not converged yet. 
  max grad (force/stress) = 1.5602E-02 > tolmxf= 1.0000E-09 ha/bohr (free atoms)
 
 EXIT:           1           1
 mover: previous time step took  3.80 [s]
 
--- Iteration: (  5/100) Internal Cycle: (1/1)
--------------------------------------------------------------------------------
 
 Cartesian coordinates (xcart) [bohr]
 -4.87559650068692E-02 -2.28698895758661E-19 -6.93889390390723E-18
  2.53901455235912E+00  2.59531449792195E+00  2.59531449792195E+00
 Reduced coordinates (xred)
 -4.69888214062543E-03  4.69888214062543E-03 -4.69888214062543E-03
  2.44698882140625E-01  2.55301117859375E-01  2.44698882140625E-01
 Scale of Primitive Cell (acell) [bohr]
  7.33815848448258E+00  7.34065792316948E+00  7.33815848448258E+00
 Real space primitive translations (rprimd) [bohr]
  5.18803872365053E+00  5.18968431148347E+00  9.44684360423114E-04
  0.00000000000000E+00  5.19062899584390E+00  5.19062899584390E+00
  5.18803872365053E+00  9.44684360423112E-04  5.18968431148347E+00
 Unitary Cell Volume (ucvol) [Bohr^3]=  2.79457050686215E+02
 Angles (23,13,12)= [degrees]
  5.99887321238572E+01  5.99984444881364E+01  5.99887321238572E+01
 Lengths [Bohr]
  7.33815848448258E+00  7.34065792316948E+00  7.33815848448258E+00
 
---SELF-CONSISTENT-FIELD CONVERGENCE--------------------------------------------
 
 getcut: wavevector=  0.0000  0.0000  0.0000  ngfft=  32  32  32
         ecut(hartree)=     16.000   => boxcut(ratio)=   2.42097
 
 getcut : COMMENT -
  Note that boxcut > 2.2 ; recall that boxcut=Gcut(box)/Gcut(sphere) = 2
  is sufficient for exact treatment of convolution.
  Such a large boxcut is a waste : you could raise ecut
  e.g. ecut=   23.444433 Hartrees makes boxcut=2
 
 
 ITER STEP NUMBER     1
 vtorho: nnsclo_now=2, note that nnsclo,dbl_nnsclo,istep=0 0 1
 Total charge density [el/Bohr^3]
      Maximum=    8.4362E-02  at reduced coord.    0.0938    0.7188    0.0938
      Minimum=    1.6053E-03  at reduced coord.    0.0000    0.0000    0.0000
   Integrated=    8.0000E+00
 ETOT  1  -8.4620539514631    -8.462E+00 1.215E+00 2.654E+00
 scprqt: <Vxc>= -3.3552453E-01 hartree
 
 Simple mixing update:
  residual square of the potential:    1.50556786052332
 scfcv_core: previous iteration took  0.49 [s]
 
 ITER STEP NUMBER     2
 vtorho: nnsclo_now=2, note that nnsclo,dbl_nnsclo,istep=0 0 2
 Total charge density [el/Bohr^3]
      Maximum=    8.3354E-02  at reduced coord.    0.0938    0.7188    0.0938
      Minimum=    1.6001E-03  at reduced coord.    0.0000    0.0000    0.0000
   Integrated=    8.0000E+00
 ETOT  2  -8.4623484109637    -2.945E-04 2.039E-07 1.486E-01
 scprqt: <Vxc>= -3.3639694E-01 hartree
 
 Pulay update with  1 previous iterations:
 mixing of old trial potential: alpha(m:m-4)=   1.09     -0.854E-01
 scfcv_core: previous iteration took  0.36 [s]
 
 ITER STEP NUMBER     3
 vtorho: nnsclo_now=1, note that nnsclo,dbl_nnsclo,istep=0 0 3
 Total charge density [el/Bohr^3]
      Maximum=    8.3160E-02  at reduced coord.    0.0938    0.7188    0.0938
      Minimum=    1.5994E-03  at reduced coord.    0.0000    0.0000    0.0000
   Integrated=    8.0000E+00
 ETOT  3  -8.4623668948924    -1.848E-05 9.217E-08 1.446E-02
 scprqt: <Vxc>= -3.3663499E-01 hartree
 
 Pulay update with  2 previous iterations:
 mixing of old trial potential: alpha(m:m-4)=   1.46     -0.470      0.707E-02
 scfcv_core: previous iteration took  0.22 [s]
 
 ITER STEP NUMBER     4
 vtorho: nnsclo_now=1, note that nnsclo,dbl_nnsclo,istep=0 0 4
 Total charge density [el/Bohr^3]
      Maximum=    8.3109E-02  at reduced coord.    0.0938    0.7188    0.0938
      Minimum=    1.5993E-03  at reduced coord.    0.0000    0.0000    0.0000
   Integrated=    8.0000E+00
 ETOT  4  -8.4623684161116    -1.521E-06 1.222E-08 6.749E-05
 scprqt: <Vxc>= -3.3672644E-01 hartree
 
 Pulay update with  3 previous iterations:
 mixing of old trial potential: alpha(m:m-4)=   1.25     -0.337      0.889E-01 -0.537E-03
 scfcv_core: previous iteration took  0.25 [s]
 
 ITER STEP NUMBER     5
 vtorho: nnsclo_now=1, note that nnsclo,dbl_nnsclo,istep=0 0 5
 Total charge density [el/Bohr^3]
      Maximum=    8.3111E-02  at reduced coord.    0.0938    0.7188    0.0938
      Minimum=    1.5993E-03  at reduced coord.    0.0000    0.0000    0.0000
   Integrated=    8.0000E+00
 ETOT  5  -8.4623684198831    -3.772E-09 2.382E-11 1.891E-07
 scprqt: <Vxc>= -3.3672892E-01 hartree
 
 Pulay update with  4 previous iterations:
 mixing of old trial potential: alpha(m:m-4)=   1.20     -0.243      0.605E-01 -0.156E-01  0.560E-04
 scfcv_core: previous iteration took  0.22 [s]
 
 ITER STEP NUMBER     6
 vtorho: nnsclo_now=1, note that nnsclo,dbl_nnsclo,istep=0 0 6
 Total charge density [el/Bohr^3]
      Maximum=    8.3111E-02  at reduced coord.    0.0938    0.7188    0.0938
      Minimum=    1.5993E-03  at reduced coord.    0.0000    0.0000    0.0000
   Integrated=    8.0000E+00
 ETOT  6  -8.4623684199012    -1.811E-11 1.840E-13 1.701E-09
 scprqt: <Vxc>= -3.3672901E-01 hartree
 
 Pulay update with  5 previous iterations:
 mixing of old trial potential: alpha(m:m-4)=   1.20     -0.237      0.456E-01 -0.118E-01  0.314E-02
 scfcv_core: previous iteration took  0.23 [s]
 
 ITER STEP NUMBER     7
 vtorho: nnsclo_now=1, note that nnsclo,dbl_nnsclo,istep=0 0 7
 Total charge density [el/Bohr^3]
      Maximum=    8.3111E-02  at reduced coord.    0.0938    0.7188    0.0938
      Minimum=    1.5993E-03  at reduced coord.    0.0000    0.0000    0.0000
   Integrated=    8.0000E+00
 ETOT  7  -8.4623684199014    -1.776E-13 1.856E-15 2.825E-11
 scprqt: <Vxc>= -3.3672899E-01 hartree
 
 Pulay update with  6 previous iterations:
 mixing of old trial potential: alpha(m:m-4)=   1.10     -0.111      0.163E-01 -0.373E-02  0.103E-02
 scfcv_core: previous iteration took  0.22 [s]
 
 ITER STEP NUMBER     8
 vtorho: nnsclo_now=1, note that nnsclo,dbl_nnsclo,istep=0 0 8
 Total charge density [el/Bohr^3]
      Maximum=    8.3111E-02  at reduced coord.    0.0938    0.7188    0.0938
      Minimum=    1.5993E-03  at reduced coord.    0.0000    0.0000    0.0000
   Integrated=    8.0000E+00
 ETOT  8  -8.4623684199014     2.665E-14 1.277E-16 1.346E-12
 scprqt: <Vxc>= -3.3672899E-01 hartree
 
 Pulay update with  7 previous iterations:
 mixing of old trial potential: alpha(m:m-4)=   1.21     -0.215      0.411E-02 -0.838E-03  0.284E-03
 scfcv_core: previous iteration took  0.25 [s]
 
 ITER STEP NUMBER     9
 vtorho: nnsclo_now=1, note that nnsclo,dbl_nnsclo,istep=0 0 9
 Total charge density [el/Bohr^3]
      Maximum=    8.3111E-02  at reduced coord.    0.0938    0.7188    0.0938
      Minimum=    1.5993E-03  at reduced coord.    0.0000    0.0000    0.0000
   Integrated=    8.0000E+00
 ETOT  9  -8.4623684199014    -2.309E-14 2.022E-17 1.012E-13
 scprqt: <Vxc>= -3.3672899E-01 hartree
 
 Pulay update with  7 previous iterations:
 mixing of old trial potential: alpha(m:m-4)=   1.47     -0.512      0.422E-01  0.298E-02 -0.281E-03
 scfcv_core: previous iteration took  0.23 [s]
 
 ITER STEP NUMBER    10
 vtorho: nnsclo_now=1, note that nnsclo,dbl_nnsclo,istep=0 0 10
 Total charge density [el/Bohr^3]
      Maximum=    8.3111E-02  at reduced coord.    0.0938    0.7188    0.0938
      Minimum=    1.5993E-03  at reduced coord.    0.0000    0.0000    0.0000
   Integrated=    8.0000E+00
 ETOT 10  -8.4623684199014     1.954E-14 3.058E-18 7.052E-16
 scprqt: <Vxc>= -3.3672899E-01 hartree
 
 Pulay update with  7 previous iterations:
 mixing of old trial potential: alpha(m:m-4)=   1.19     -0.244      0.563E-01 -0.180E-02 -0.390E-03
 scfcv_core: previous iteration took  0.25 [s]
 
 ITER STEP NUMBER    11
 vtorho: nnsclo_now=1, note that nnsclo,dbl_nnsclo,istep=0 0 11
 Total charge density [el/Bohr^3]
      Maximum=    8.3111E-02  at reduced coord.    0.0938    0.7188    0.0938
      Minimum=    1.5993E-03  at reduced coord.    0.0000    0.0000    0.0000
   Integrated=    8.0000E+00
 ETOT 11  -8.4623684199014    -2.132E-14 1.955E-20 4.528E-18
 scprqt: <Vxc>= -3.3672899E-01 hartree
 
 At SCF step   11       vres2   =  4.53E-18 < tolvrs=  1.00E-16 =>converged.
 
 Cartesian components of stress tensor (hartree/bohr^3)
  sigma(1 1)=  3.64301239E-05  sigma(3 2)= -2.53830706E-06
  sigma(2 2)=  3.74481505E-05  sigma(3 1)=  0.00000000E+00
  sigma(3 3)=  3.74481505E-05  sigma(2 1)=  0.00000000E+00
 
 
   fftdatar_write: About to write data to: opto_TIM5_DEN with iomode: IO_MODE_FORTRAN
 IO operation completed. cpu:  0.00 [s] , wall:  0.01 [s]
- Creating HDf5 file with MPI-IO support: opto_GSR.nc
 Write iteration in HIST netCDF file
 
---OUTPUT-----------------------------------------------------------------------
 
 Cartesian coordinates (xcart) [bohr]
 -4.87559650068692E-02 -2.28698895758661E-19 -6.93889390390723E-18
  2.53901455235912E+00  2.59531449792195E+00  2.59531449792195E+00
 Reduced coordinates (xred)
 -4.69888214062543E-03  4.69888214062543E-03 -4.69888214062543E-03
  2.44698882140625E-01  2.55301117859375E-01  2.44698882140625E-01
 Cartesian forces (fcart) [Ha/bohr]; max,rms= 7.60080E-04 4.38832E-04 (free atoms)
 -7.60079898996129E-04  0.00000000000000E+00  0.00000000000000E+00
  7.60079898996129E-04  0.00000000000000E+00  0.00000000000000E+00
 Reduced forces (fred)
  3.94332394906030E-03  0.00000000000000E+00  3.94332394906030E-03
 -3.94332394906030E-03  0.00000000000000E+00 -3.94332394906030E-03
 Scale of Primitive Cell (acell) [bohr]
  7.33815848448258E+00  7.34065792316948E+00  7.33815848448258E+00
 Real space primitive translations (rprimd) [bohr]
  5.18803872365053E+00  5.18968431148347E+00  9.44684360423114E-04
  0.00000000000000E+00  5.19062899584390E+00  5.19062899584390E+00
  5.18803872365053E+00  9.44684360423112E-04  5.18968431148347E+00
 Unitary Cell Volume (ucvol) [Bohr^3]=  2.79457050686215E+02
 Angles (23,13,12)= [degrees]
  5.99887321238572E+01  5.99984444881364E+01  5.99887321238572E+01
 Lengths [Bohr]
  7.33815848448258E+00  7.34065792316948E+00  7.33815848448258E+00
 Stress tensor in cartesian coordinates (strten) [Ha/bohr^3]
  3.64301238602442E-05  0.00000000000000E+00  0.00000000000000E+00
  0.00000000000000E+00  3.74481505196621E-05 -2.53830706448458E-06
  0.00000000000000E+00 -2.53830706448458E-06  3.74481505196619E-05
 Total energy (etotal) [Ha]= -8.46236841990141E+00
 
 Difference of energy with previous step (new-old):
           Absolute (Ha)=-1.34361E-03
           Relative     =-1.58788E-04
 fconv : at Broyd/MD step   5, gradients have not converged yet. 
  max grad (force/stress) = 3.7448E-03 > tolmxf= 1.0000E-09 ha/bohr (free atoms)
 
[...]
   0.3750 -0.2500  0.2500    1  2.08364E-22 kpt; spin; max resid(k); each band:
  2.08E-22 2.06E-22 1.37E-22 8.60E-23
   0.0000 -0.1250  0.0000    1  5.56505E-22 kpt; spin; max resid(k); each band:
  5.57E-22 2.55E-22 7.25E-23 4.67E-22
   0.1250 -0.1250  0.1250    1  3.63665E-22 kpt; spin; max resid(k); each band:
  3.64E-22 3.54E-22 1.08E-23 2.38E-22
   0.2500 -0.1250  0.2500    1  2.93157E-22 kpt; spin; max resid(k); each band:
  2.69E-22 2.93E-22 9.00E-23 5.52E-24
   0.3750 -0.1250  0.3750    1  2.42476E-22 kpt; spin; max resid(k); each band:
  2.40E-22 2.42E-22 7.06E-23 1.51E-23
  -0.3750  0.0000  0.0000    1  3.36791E-22 kpt; spin; max resid(k); each band:
  3.37E-22 9.84E-23 3.31E-22 8.23E-24
  -0.2500  0.0000  0.1250    1  2.35012E-22 kpt; spin; max resid(k); each band:
  2.34E-22 9.36E-23 2.35E-22 2.73E-24
   0.2500  0.5000  0.1250    1  4.62329E-22 kpt; spin; max resid(k); each band:
  4.39E-22 6.90E-23 4.62E-22 7.80E-23
   0.0000 -0.3750  0.0000    1  4.47626E-22 kpt; spin; max resid(k); each band:
  4.48E-22 1.97E-22 3.94E-22 1.33E-22
   0.1250 -0.3750  0.1250    1  3.29841E-22 kpt; spin; max resid(k); each band:
  2.53E-22 2.05E-22 3.30E-22 1.01E-23
   0.2500 -0.3750  0.2500    1  3.04819E-22 kpt; spin; max resid(k); each band:
  2.42E-22 6.12E-23 3.05E-22 8.59E-24
  -0.2500 -0.3750 -0.2500    1  5.27567E-22 kpt; spin; max resid(k); each band:
  5.28E-22 1.39E-22 4.58E-22 4.26E-24
   0.5000  0.0000  0.1250    1  2.46876E-22 kpt; spin; max resid(k); each band:
  2.47E-22 5.99E-23 2.28E-22 7.36E-24
  -0.3750  0.0000  0.2500    1  1.25382E-22 kpt; spin; max resid(k); each band:
  1.25E-22 3.11E-23 1.24E-22 6.79E-24
   0.2500  0.0000  0.1250    1  3.87311E-22 kpt; spin; max resid(k); each band:
  3.87E-22 2.16E-22 8.22E-24 2.55E-22
   0.3750  0.0000  0.2500    1  2.66367E-22 kpt; spin; max resid(k); each band:
  2.66E-22 2.45E-22 7.87E-23 6.41E-24
   0.5000  0.0000  0.3750    1  2.31493E-22 kpt; spin; max resid(k); each band:
  2.28E-22 2.31E-22 2.34E-23 5.61E-24
 
   outwf: writing wavefunctions to: opto_WFK with iomode: IO_MODE_FORTRAN_MASTER
 WFK output completed. cpu:  0.09 [s] , wall:  0.10 [s]
 prteigrs : about to open file opto_EIG
 Fermi (or HOMO) energy (hartree) =   0.14282   Average Vxc (hartree)=  -0.33848
 Eigenvalues (hartree) for nkpt=  40  k points:
 kpt#   1, nband=  4, wtk=  0.03125, kpt= -0.1250 -0.2500  0.0000 (reduced coord)
  -0.25443    0.03516    0.10574    0.10806
 kpt#   2, nband=  4, wtk=  0.03125, kpt= -0.2500 -0.1250  0.0000 (reduced coord)
  -0.25443    0.03516    0.10574    0.10806
 kpt#   3, nband=  4, wtk=  0.03125, kpt= -0.1250  0.5000  0.0000 (reduced coord)
  -0.19429   -0.09171    0.07052    0.09679
 kpt#   4, nband=  4, wtk=  0.03125, kpt= -0.2500 -0.3750  0.0000 (reduced coord)
  -0.21657   -0.02770    0.05697    0.07362
 kpt#   5, nband=  4, wtk=  0.03125, kpt= -0.1250 -0.3750  0.1250 (reduced coord)
  -0.20131   -0.05975    0.03338    0.08371
 kpt#   6, nband=  4, wtk=  0.03125, kpt= -0.3750 -0.2500  0.0000 (reduced coord)
  -0.21657   -0.02770    0.05697    0.07362
 kpt#   7, nband=  4, wtk=  0.03125, kpt= -0.1250 -0.2500  0.2500 (reduced coord)
  -0.20131   -0.05975    0.03338    0.08371
 kpt#   8, nband=  4, wtk=  0.03125, kpt=  0.5000 -0.1250  0.0000 (reduced coord)
  -0.19429   -0.09171    0.07052    0.09679
 kpt#   9, nband=  4, wtk=  0.03125, kpt= -0.3750 -0.1250  0.1250 (reduced coord)
  -0.20131   -0.05975    0.03338    0.08371
 kpt#  10, nband=  4, wtk=  0.03125, kpt= -0.1250  0.2500  0.0000 (reduced coord)
  -0.23612   -0.01540    0.06976    0.12515
 kpt#  11, nband=  4, wtk=  0.03125, kpt= -0.2500  0.3750  0.0000 (reduced coord)
  -0.17609   -0.08862    0.00935    0.08513
 kpt#  12, nband=  4, wtk=  0.03125, kpt= -0.3750  0.5000  0.0000 (reduced coord)
  -0.16252   -0.09618    0.02963    0.05646
 kpt#  13, nband=  4, wtk=  0.03125, kpt= -0.2500  0.5000  0.1250 (reduced coord)
  -0.15637   -0.09975    0.00722    0.04678
 kpt#  14, nband=  4, wtk=  0.03125, kpt=  0.5000 -0.3750  0.0000 (reduced coord)
  -0.16252   -0.09618    0.02963    0.05646
 kpt#  15, nband=  4, wtk=  0.03125, kpt= -0.2500 -0.3750  0.2500 (reduced coord)
  -0.15637   -0.09975    0.00722    0.04678
 kpt#  16, nband=  4, wtk=  0.03125, kpt=  0.3750 -0.2500  0.0000 (reduced coord)
  -0.17609   -0.08862    0.00935    0.08513
 kpt#  17, nband=  4, wtk=  0.03125, kpt=  0.5000 -0.2500  0.1250 (reduced coord)
  -0.15637   -0.09975    0.00722    0.04678
 kpt#  18, nband=  4, wtk=  0.03125, kpt=  0.2500 -0.1250  0.0000 (reduced coord)
  -0.23612   -0.01540    0.06976    0.12515
 kpt#  19, nband=  4, wtk=  0.03125, kpt=  0.3750 -0.1250  0.1250 (reduced coord)
  -0.20131   -0.05975    0.03338    0.08371
 kpt#  20, nband=  4, wtk=  0.03125, kpt=  0.5000 -0.1250  0.2500 (reduced coord)
  -0.15637   -0.09975    0.00722    0.04678
 kpt#  21, nband=  4, wtk=  0.01563, kpt= -0.1250  0.0000  0.0000 (reduced coord)
  -0.27381    0.09459    0.14282    0.14282
 kpt#  22, nband=  4, wtk=  0.03125, kpt=  0.3750 -0.3750  0.1250 (reduced coord)
  -0.15637   -0.09975    0.00722    0.04678
 kpt#  23, nband=  4, wtk=  0.03125, kpt=  0.2500 -0.2500  0.1250 (reduced coord)
  -0.20131   -0.05975    0.03338    0.08371
 kpt#  24, nband=  4, wtk=  0.03125, kpt=  0.3750 -0.2500  0.2500 (reduced coord)
  -0.15637   -0.09975    0.00722    0.04678
 kpt#  25, nband=  4, wtk=  0.01563, kpt=  0.0000 -0.1250  0.0000 (reduced coord)
  -0.27381    0.09459    0.14282    0.14282
 kpt#  26, nband=  4, wtk=  0.01563, kpt=  0.1250 -0.1250  0.1250 (reduced coord)
  -0.25443    0.03516    0.10574    0.10806
 kpt#  27, nband=  4, wtk=  0.01563, kpt=  0.2500 -0.1250  0.2500 (reduced coord)
  -0.21657   -0.02770    0.05697    0.07362
 kpt#  28, nband=  4, wtk=  0.01563, kpt=  0.3750 -0.1250  0.3750 (reduced coord)
  -0.16252   -0.09618    0.02963    0.05646
 kpt#  29, nband=  4, wtk=  0.01563, kpt= -0.3750  0.0000  0.0000 (reduced coord)
  -0.22023   -0.06277    0.11386    0.11386
 kpt#  30, nband=  4, wtk=  0.01563, kpt= -0.2500  0.0000  0.1250 (reduced coord)
  -0.23612   -0.01540    0.06976    0.12515
 kpt#  31, nband=  4, wtk=  0.03125, kpt=  0.2500  0.5000  0.1250 (reduced coord)
  -0.20131   -0.05975    0.03338    0.08371
 kpt#  32, nband=  4, wtk=  0.01563, kpt=  0.0000 -0.3750  0.0000 (reduced coord)
  -0.22023   -0.06277    0.11386    0.11386
 kpt#  33, nband=  4, wtk=  0.01563, kpt=  0.1250 -0.3750  0.1250 (reduced coord)
  -0.19429   -0.09171    0.07052    0.09679
 kpt#  34, nband=  4, wtk=  0.01563, kpt=  0.2500 -0.3750  0.2500 (reduced coord)
  -0.17609   -0.08862    0.00935    0.08513
 kpt#  35, nband=  4, wtk=  0.01563, kpt= -0.2500 -0.3750 -0.2500 (reduced coord)
  -0.23612   -0.01540    0.06976    0.12515
 kpt#  36, nband=  4, wtk=  0.01563, kpt=  0.5000  0.0000  0.1250 (reduced coord)
  -0.19429   -0.09171    0.07052    0.09679
 kpt#  37, nband=  4, wtk=  0.01563, kpt= -0.3750  0.0000  0.2500 (reduced coord)
  -0.17609   -0.08862    0.00935    0.08513
 kpt#  38, nband=  4, wtk=  0.01563, kpt=  0.2500  0.0000  0.1250 (reduced coord)
  -0.25443    0.03516    0.10574    0.10806
 kpt#  39, nband=  4, wtk=  0.01563, kpt=  0.3750  0.0000  0.2500 (reduced coord)
  -0.21657   -0.02770    0.05697    0.07362
 kpt#  40, nband=  4, wtk=  0.01563, kpt=  0.5000  0.0000  0.3750 (reduced coord)
  -0.16252   -0.09618    0.02963    0.05646
 Total charge density [el/Bohr^3]
      Maximum=    8.3778E-02  at reduced coord.    0.0938    0.7188    0.0938
 Next maximum=    8.3778E-02  at reduced coord.    0.0938    0.0938    0.0938
      Minimum=    1.6096E-03  at reduced coord.    0.2500    0.2500    0.2500
 Next minimum=    1.6096E-03  at reduced coord.    0.0000    0.0000    0.0000
   Integrated=    8.0000E+00
 
 Cartesian components of stress tensor (hartree/bohr^3)
  sigma(1 1)= -1.37918583E-12  sigma(3 2)= -4.87316567E-13
  sigma(2 2)=  1.88387934E-13  sigma(3 1)=  0.00000000E+00
  sigma(3 3)=  1.88387934E-13  sigma(2 1)=  0.00000000E+00
 
-Cartesian components of stress tensor (GPa)         [Pressure=  9.8306E-09 GPa]
- sigma(1 1)= -4.05770411E-08  sigma(3 2)= -1.43373460E-08
- sigma(2 2)=  5.54256343E-09  sigma(3 1)=  0.00000000E+00
- sigma(3 3)=  5.54256343E-09  sigma(2 1)=  0.00000000E+00
 
== END DATASET(S) ==============================================================
================================================================================
  
 -outvars: echo values of variables after computation  --------
 
 These variables are accessible in NetCDF format (opto_OUT.nc)

            acell      7.3076524753E+00  7.3076524739E+00  7.3076524753E+00 Bohr
              amu      2.80855000E+01
          dilatmx      1.05000000E+00
             ecut      1.60000000E+01 Hartree
           ecutsm      5.00000000E-01 Hartree
           etotal     -8.4624366662E+00
            fcart      2.9422150765E-11  1.6155871339E-27 -1.6155871339E-27
                      -2.9422150765E-11 -1.6155871339E-27  1.6155871339E-27
-          fftalg         312
           ionmov           2
              ixc          11
              kpt     -1.25000000E-01 -2.50000000E-01  0.00000000E+00
                      -2.50000000E-01 -1.25000000E-01  0.00000000E+00
                      -1.25000000E-01  5.00000000E-01  0.00000000E+00
                      -2.50000000E-01 -3.75000000E-01  0.00000000E+00
                      -1.25000000E-01 -3.75000000E-01  1.25000000E-01
                      -3.75000000E-01 -2.50000000E-01  0.00000000E+00
                      -1.25000000E-01 -2.50000000E-01  2.50000000E-01
                       5.00000000E-01 -1.25000000E-01  0.00000000E+00
                      -3.75000000E-01 -1.25000000E-01  1.25000000E-01
                      -1.25000000E-01  2.50000000E-01  0.00000000E+00
                      -2.50000000E-01  3.75000000E-01  0.00000000E+00
                      -3.75000000E-01  5.00000000E-01  0.00000000E+00
                      -2.50000000E-01  5.00000000E-01  1.25000000E-01
                       5.00000000E-01 -3.75000000E-01  0.00000000E+00
                      -2.50000000E-01 -3.75000000E-01  2.50000000E-01
                       3.75000000E-01 -2.50000000E-01  0.00000000E+00
                       5.00000000E-01 -2.50000000E-01  1.25000000E-01
                       2.50000000E-01 -1.25000000E-01  0.00000000E+00
                       3.75000000E-01 -1.25000000E-01  1.25000000E-01
                       5.00000000E-01 -1.25000000E-01  2.50000000E-01
                      -1.25000000E-01  0.00000000E+00  0.00000000E+00
                       3.75000000E-01 -3.75000000E-01  1.25000000E-01
                       2.50000000E-01 -2.50000000E-01  1.25000000E-01
                       3.75000000E-01 -2.50000000E-01  2.50000000E-01
                       0.00000000E+00 -1.25000000E-01  0.00000000E+00
                       1.25000000E-01 -1.25000000E-01  1.25000000E-01
                       2.50000000E-01 -1.25000000E-01  2.50000000E-01
                       3.75000000E-01 -1.25000000E-01  3.75000000E-01
                      -3.75000000E-01  0.00000000E+00  0.00000000E+00
                      -2.50000000E-01  0.00000000E+00  1.25000000E-01
                       2.50000000E-01  5.00000000E-01  1.25000000E-01
                       0.00000000E+00 -3.75000000E-01  0.00000000E+00
                       1.25000000E-01 -3.75000000E-01  1.25000000E-01
                       2.50000000E-01 -3.75000000E-01  2.50000000E-01
                      -2.50000000E-01 -3.75000000E-01 -2.50000000E-01
                       5.00000000E-01  0.00000000E+00  1.25000000E-01
                      -3.75000000E-01  0.00000000E+00  2.50000000E-01
                       2.50000000E-01  0.00000000E+00  1.25000000E-01
                       3.75000000E-01  0.00000000E+00  2.50000000E-01
                       5.00000000E-01  0.00000000E+00  3.75000000E-01
         kptrlatt        4   -4    4     -4    4    4     -4   -4    4
          kptrlen      4.53534272E+01
P           mkmem           3
            natom           2
            nband           4
            ngfft          32      32      32
             nkpt          40
             nsym           8
            ntime         100
           ntypat           1
              occ      2.000000  2.000000  2.000000  2.000000
          optcell           2
            rprim      7.0710678127E-01  7.0710678110E-01 -5.1354079751E-11
                       0.0000000000E+00  7.0710678119E-01  7.0710678119E-01
                       7.0710678127E-01 -5.1354065771E-11  7.0710678110E-01
           shiftk      5.00000000E-01  5.00000000E-01  5.00000000E-01
          spgroup          74
           strten     -1.3791858280E-12  1.8838793372E-13  1.8838793372E-13
                      -4.8731656731E-13  0.0000000000E+00  0.0000000000E+00
           symrel      1  0  0   0  1  0   0  0  1      -1  0  0   0 -1  0   0  0 -1
                       0 -1  1   0 -1  0   1 -1  0       0  1 -1   0  1  0  -1  1  0
                       0  0  1   0  1  0   1  0  0       0  0 -1   0 -1  0  -1  0  0
                       1 -1  0   0 -1  0   0 -1  1      -1  1  0   0  1  0   0  1 -1
            tnons      0.0000000  0.0000000  0.0000000     0.2400000  0.2600000  0.2400000
                       0.0000000  0.0000000  0.0000000     0.2400000  0.2600000  0.2400000
                       0.0000000  0.0000000  0.0000000     0.2400000  0.2600000  0.2400000
                       0.0000000  0.0000000  0.0000000     0.2400000  0.2600000  0.2400000
           tolmxf      1.00000000E-09
           tolvrs      1.00000000E-16
            typat      1  1
              wtk        0.03125    0.03125    0.03125    0.03125    0.03125    0.03125
                         0.03125    0.03125    0.03125    0.03125    0.03125    0.03125
                         0.03125    0.03125    0.03125    0.03125    0.03125    0.03125
                         0.03125    0.03125    0.01563    0.03125    0.03125    0.03125
                         0.01563    0.01563    0.01563    0.01563    0.01563    0.01563
                         0.03125    0.01563    0.01563    0.01563    0.01563    0.01563
                         0.01563    0.01563    0.01563    0.01563
           xangst     -2.7344124370E-02  8.8338733432E-17  8.8125708163E-17
                       1.3398620891E+00  1.3672062128E+00  1.3672062128E+00
            xcart     -5.1672906404E-02  1.6693601311E-16  1.6653345369E-16
                       2.5319724042E+00  2.5836453094E+00  2.5836453094E+00
             xred     -5.0000000192E-03  5.0000000192E-03 -5.0000000192E-03
                       2.4500000002E-01  2.5499999998E-01  2.4500000002E-01
            znucl       14.00000
 
================================================================================
  

================================================================================

 Suggested references for the acknowledgment of ABINIT usage.

 The users of ABINIT have little formal obligations with respect to the ABINIT group
 (those specified in the GNU General Public License, http://www.gnu.org/copyleft/gpl.txt).
 However, it is common practice in the scientific literature,
 to acknowledge the efforts of people that have made the research possible.
 In this spirit, please find below suggested citations of work written by ABINIT developers,
 corresponding to implementations inside of ABINIT that you have used in the present run.
 Note also that it will be of great value to readers of publications presenting these results,
 to read papers enabling them to understand the theoretical formalism and details
 of the ABINIT implementation.
 For information on why they are suggested, see also https://docs.abinit.org/theory/acknowledgments.
-
- [1] Recent developments in the ABINIT software package.
- Computer Phys. Comm. 205, 106 (2016).
- X.Gonze, F.Jollet, F.Abreu Araujo, D.Adams, B.Amadon, T.Applencourt,
- C.Audouze, J.-M.Beuken, J.Bieder, A.Bokhanchuk, E.Bousquet, F.Bruneval
- D.Caliste, M.Cote, F.Dahm, F.Da Pieve, M.Delaveau, M.Di Gennaro,
- B.Dorado, C.Espejo, G.Geneste, L.Genovese, A.Gerossier, M.Giantomassi,
- Y.Gillet, D.R.Hamann, L.He, G.Jomard, J.Laflamme Janssen, S.Le Roux,
- A.Levitt, A.Lherbier, F.Liu, I.Lukacevic, A.Martin, C.Martins,
- M.J.T.Oliveira, S.Ponce, Y.Pouillon, T.Rangel, G.-M.Rignanese,
- A.H.Romero, B.Rousseau, O.Rubel, A.A.Shukri, M.Stankovski, M.Torrent,
- M.J.Van Setten, B.Van Troeye, M.J.Verstraete, D.Waroquier, J.Wiktor,
- B.Xu, A.Zhou, J.W.Zwanziger.
- Comment: the fourth generic paper describing the ABINIT project.
- Note that a version of this paper, that is not formatted for Computer Phys. Comm. 
- is available at https://www.abinit.org/about/ABINIT16.pdf .
- The licence allows the authors to put it on the Web.
- DOI and bibtex: see https://docs.abinit.org/theory/bibliography/#gonze2016
-
- [2] Optimized norm-conserving Vanderbilt pseudopotentials.
- D.R. Hamann, Phys. Rev. B 88, 085117 (2013).
- Comment: Some pseudopotential generated using the ONCVPSP code were used.
- DOI and bibtex: see https://docs.abinit.org/theory/bibliography/#hamann2013
-
- [3] ABINIT: First-principles approach of materials and nanosystem properties.
- Computer Phys. Comm. 180, 2582-2615 (2009).
- X. Gonze, B. Amadon, P.-M. Anglade, J.-M. Beuken, F. Bottin, P. Boulanger, F. Bruneval,
- D. Caliste, R. Caracas, M. Cote, T. Deutsch, L. Genovese, Ph. Ghosez, M. Giantomassi
- S. Goedecker, D.R. Hamann, P. Hermet, F. Jollet, G. Jomard, S. Leroux, M. Mancini, S. Mazevet,
- M.J.T. Oliveira, G. Onida, Y. Pouillon, T. Rangel, G.-M. Rignanese, D. Sangalli, R. Shaltaf,
- M. Torrent, M.J. Verstraete, G. Zerah, J.W. Zwanziger
- Comment: the third generic paper describing the ABINIT project.
- Note that a version of this paper, that is not formatted for Computer Phys. Comm. 
- is available at https://www.abinit.org/about/ABINIT_CPC_v10.pdf .
- The licence allows the authors to put it on the Web.
- DOI and bibtex: see https://docs.abinit.org/theory/bibliography/#gonze2009
-
- [4] A brief introduction to the ABINIT software package.
- Z. Kristallogr. 220, 558-562 (2005).
- X. Gonze, G.-M. Rignanese, M. Verstraete, J.-M. Beuken, Y. Pouillon, R. Caracas, F. Jollet,
- M. Torrent, G. Zerah, M. Mikami, Ph. Ghosez, M. Veithen, J.-Y. Raty, V. Olevano, F. Bruneval,
- L. Reining, R. Godby, G. Onida, D.R. Hamann, and D.C. Allan.
- Comment: the second generic paper describing the ABINIT project. Note that this paper
- should be cited especially if you are using the GW part of ABINIT, as several authors
- of this part are not in the list of authors of the first or third paper.
- The .pdf of the latter paper is available at https://www.abinit.org/about/zfk_0505-06_558-562.pdf.
- Note that it should not redistributed (Copyright by Oldenburg Wissenshaftverlag,
- the licence allows the authors to put it on the Web).
- DOI and bibtex: see https://docs.abinit.org/theory/bibliography/#gonze2005
-
- And optionally:
-
- [5] First-principles computation of material properties: the ABINIT software project. 
- X. Gonze, J.-M. Beuken, R. Caracas, F. Detraux, M. Fuchs, G.-M. Rignanese, L. Sindic,
- M. Verstraete, G. Zerah, F. Jollet, M. Torrent, A. Roy, M. Mikami, Ph. Ghosez, J.-Y. Raty, D.C. Allan.
- Computational Materials Science 25, 478-492 (2002). http://dx.doi.org/10.1016/S0927-0256(02)00325-7
- Comment: the original paper describing the ABINIT project.
- DOI and bibtex : see https://docs.abinit.org/theory/bibliography/#gonze2002
 Proc.   0 individual time (sec): cpu=         27.6  wall=         52.7
 
 Calculation completed.
.Delivered  12 WARNINGs and  18 COMMENTs to log file.

--- !FinalSummary
program: abinit
version: 8.11.13
start_datetime: Tue Jan 14 17:09:43 2020
end_datetime: Tue Jan 14 17:10:36 2020
overall_cpu_time:         608.4
overall_wall_time:         738.0
exit_requested_by_user: no 
timelimit: 0
pseudos: 
    Si  : 45c393525680abc7b25445b8ec62bf83
usepaw: 0
mpi_procs: 14
omp_threads: 1
num_warnings: 12
num_comments: 18
...
