  ABINIT 8.11.13
  
  Give name for formatted input file: 
ddb.in
  Give name for formatted output file:
ddb.out
  Give root name for generic input files:
ddbi
  Give root name for generic output files:
ddbo
  Give root name for generic temporary files:
ddb
 
--- !COMMENT
src_file: m_dtfil.F90
src_line: 1450
message: |
    Output file: ddb.out already exists.
...
 
 
--- !COMMENT
src_file: m_dtfil.F90
src_line: 1474
message: |
    Renaming old ddb.out to ddb.out0002
...
 

.Version 8.11.13 of ABINIT 
.(MPI version, prepared for a x86_64_linux_intel14.0 computer) 

.Copyright (C) 1998-2019 ABINIT group . 
 ABINIT comes with ABSOLUTELY NO WARRANTY.
 It is free software, and you are welcome to redistribute it
 under certain conditions (GNU General Public License,
 see ~abinit/COPYING or http://www.gnu.org/copyleft/gpl.txt).

 ABINIT is a project of the Universite Catholique de Louvain,
 Corning Inc. and other collaborators, see ~abinit/doc/developers/contributors.txt .
 Please read https://docs.abinit.org/theory/acknowledgments for suggested
 acknowledgments of the ABINIT effort.
 For more information, see https://www.abinit.org .

.Starting date : Thu  9 Jan 2020.
- ( at 15h28 )
  
 
 ++++++++++++++++++++++++++++++++++++++++++++++++++++++++++++++++++++++++++++++
 
 === Build Information === 
  Version       : 8.11.13
  Build target  : x86_64_linux_intel14.0
  Build date    : 20191206
 
 === Compiler Suite === 
  C compiler       : intel14.0
  C++ compiler     : gnu14.0
  Fortran compiler : intel14.0
  CFLAGS           :  -g -O2
  CXXFLAGS         :  -g -O2 -mtune=native -march=native
  FCFLAGS          :  -g -extend-source -nofpscomp
  FC_LDFLAGS       :    -static-intel -static-libgcc
 
 === Optimizations === 
  Debug level        : basic
  Optimization level : standard
  Architecture       : intel_xeon
 
 === Multicore === 
  Parallel build : yes
  Parallel I/O   : yes
  openMP support : no
  GPU support    : no
 
 === Connectors / Fallbacks === 
  Connectors on : yes
  Fallbacks on  : yes
  DFT flavor    : libxc-fallback
  FFT flavor    : fftw3
  LINALG flavor : mkl
  TIMER flavor  : abinit
  TRIO flavor   : netcdf
 
 === Experimental features === 
  Exports             : no
  GW double-precision : yes
 
 ++++++++++++++++++++++++++++++++++++++++++++++++++++++++++++++++++++++++++++++
 

 ++++++++++++++++++++++++++++++++++++++++++++++++++++++++++++++++++++++++++++++
 Default optimizations:
   -O3


 Optimizations for 43_ptgroups:
   -O0


 ++++++++++++++++++++++++++++++++++++++++++++++++++++++++++++++++++++++++++++++


 ++++++++++++++++++++++++++++++++++++++++++++++++++++++++++++++++++++++++++++++
 CPP options activated during the build:

                  CC_INTEL                   CXX_GNU                  FC_INTEL
 
 HAVE_FC_ALLOCATABLE_DT...             HAVE_FC_ASYNC  HAVE_FC_COMMAND_ARGUMENT
 
        HAVE_FC_CONTIGUOUS           HAVE_FC_CPUTIME             HAVE_FC_ETIME
 
              HAVE_FC_EXIT             HAVE_FC_FLUSH             HAVE_FC_GAMMA
 
            HAVE_FC_GETENV            HAVE_FC_GETPID   HAVE_FC_IEEE_ARITHMETIC
 
   HAVE_FC_IEEE_EXCEPTIONS             HAVE_FC_IOMSG     HAVE_FC_ISO_C_BINDING
 
  HAVE_FC_ISO_FORTRAN_2008        HAVE_FC_LONG_LINES        HAVE_FC_MOVE_ALLOC
 
  HAVE_FC_ON_THE_FLY_SHAPE           HAVE_FC_PRIVATE         HAVE_FC_PROTECTED
 
           HAVE_FC_SHIFTLR         HAVE_FC_STREAM_IO            HAVE_FC_SYSTEM
 
                  HAVE_FFT            HAVE_FFT_FFTW3              HAVE_FFT_MPI
 
           HAVE_FFT_SERIAL               HAVE_GW_DPC        HAVE_LIBPAW_ABINIT
 
      HAVE_LIBTETRA_ABINIT                HAVE_LIBXC               HAVE_LINALG
 
         HAVE_LINALG_AXPBY        HAVE_LINALG_GEMM3M  HAVE_LINALG_MKL_IMATCOPY
 
   HAVE_LINALG_MKL_OMATADD  HAVE_LINALG_MKL_OMATCOPY   HAVE_LINALG_MKL_THREADS
 
        HAVE_LINALG_SERIAL                  HAVE_MPI                 HAVE_MPI2
 
       HAVE_MPI_IALLREDUCE        HAVE_MPI_IALLTOALL       HAVE_MPI_IALLTOALLV
 
           HAVE_MPI_IBCAST         HAVE_MPI_IGATHERV        HAVE_MPI_INTEGER16
 
               HAVE_MPI_IO HAVE_MPI_TYPE_CREATE_S...               HAVE_NETCDF
 
           HAVE_NETCDF_MPI                HAVE_NUMPY             HAVE_OS_LINUX
 
         HAVE_TIMER_ABINIT                  HAVE_XML              USE_MACROAVE
 
 ++++++++++++++++++++++++++++++++++++++++++++++++++++++++++++++++++++++++++++++

- input  file    -> ddb.in
- output file    -> ddb.out
- root for input  files -> ddbi
- root for output files -> ddbo
 
Netcdf library supports MPI-IO
-instrng: 104 lines of input have been read from file ddb.in
 

 Please give name of formatted atomic psp file
 For atom type 1, psp file is /CECI/home/ucl/naps/jovbever/.PsP/Si/Si.psp8
  read the values zionpsp=  4.0 , pspcod=   8 , lmax=   2
 
 inpspheads: deduce mpsang = 3, n1xccc = 2501.

======================================================= 
invars1m : enter jdtset= 1
 
 symlatt: the Bravais lattice is cF (face-centered cubic)
  xred   is defined in input file
 ingeo: takes atomic coordinates from input array xred
 
 symlatt: the Bravais lattice is cF (face-centered cubic)
 
 symlatt: the Bravais lattice is cF (face-centered cubic)
 symspgr: spgroup= 227  Fd -3 m   (=Oh^7)
 symspgr: optical characteristics = isotropic

======================================================= 
invars1m : enter jdtset= 2
 
 symlatt: the Bravais lattice is cF (face-centered cubic)
  xred   is defined in input file
 ingeo: takes atomic coordinates from input array xred
 
 symlatt: the Bravais lattice is cF (face-centered cubic)
 
 symlatt: the Bravais lattice is cF (face-centered cubic)
 symspgr: spgroup= 227  Fd -3 m   (=Oh^7)
 symspgr: optical characteristics = isotropic

======================================================= 
invars1m : enter jdtset= 3
 
 symlatt: the Bravais lattice is cF (face-centered cubic)
  xred   is defined in input file
 ingeo: takes atomic coordinates from input array xred
 
 symlatt: the Bravais lattice is cF (face-centered cubic)
 
 symlatt: the Bravais lattice is cF (face-centered cubic)
 symspgr: spgroup= 227  Fd -3 m   (=Oh^7)
 symspgr: optical characteristics = isotropic
 For input ecut=  4.000000E+01 best grid ngfft=      45      45      45
       max ecut=  4.471415E+01
 
 ==== FFT mesh ====
  FFT mesh divisions ........................    45   45   45
  Augmented FFT divisions ...................    45   45   45
  FFT algorithm .............................   312
  FFT cache size ............................    16
 getmpw: optimal value of mpw= 3356
 For input ecut=  4.000000E+01 best grid ngfft=      45      45      45
       max ecut=  4.471415E+01
 
 ==== FFT mesh ====
  FFT mesh divisions ........................    45   45   45
  Augmented FFT divisions ...................    45   45   45
  FFT algorithm .............................   312
  FFT cache size ............................    16
 getmpw: optimal value of mpw= 3356
 getmpw: optimal value of mpw= 3356
 For input ecut=  4.000000E+01 best grid ngfft=      45      45      45
       max ecut=  4.471415E+01
 
 ==== FFT mesh ====
  FFT mesh divisions ........................    45   45   45
  Augmented FFT divisions ...................    45   45   45
  FFT algorithm .............................   312
  FFT cache size ............................    16
 getmpw: optimal value of mpw= 3356
 getmpw: optimal value of mpw= 3356
 
 DATASET    1 : space group Fd -3 m (#227); Bravais cF (face-center cubic)
 
 getdim_nloc : deduce lmnmax  =  18, lnmax  =   6,
                      lmnmaxso=  18, lnmaxso=   6.
memory: analysis of memory needs
================================================================================
 Values of the parameters that define the memory need for DATASET  1.
     intxc =       0    ionmov =       0      iscf =       7    lmnmax =       6
     lnmax =       6     mgfft =      45  mpssoang =       3    mqgrid =    3001
     natom =       2  nloc_mem =       1    nspden =       1   nspinor =       1
    nsppol =       1      nsym =      48    n1xccc =    2501    ntypat =       1
    occopt =       1   xclevel =       2
-    mband =           6        mffmem =           1         mkmem =           2
       mpw =        3356          nfft =       91125          nkpt =          28
================================================================================
P This job should need less than                      30.623 Mbytes of memory.
  Rough estimation (10% accuracy) of disk space for files :
_ WF disk file :      8.605 Mbytes ; DEN or POT disk file :      0.697 Mbytes.
================================================================================
 
 Biggest array : f_fftgr(disk), with     11.1257 MBytes.
 memana : allocated an array of     11.126 Mbytes, for testing purposes.
 memana: allocated      30.623Mbytes, for testing purposes. 
 The job will continue.
 
 DATASET    2 : space group Fd -3 m (#227); Bravais cF (face-center cubic)
 
 getdim_nloc : deduce lmnmax  =  18, lnmax  =   6,
                      lmnmaxso=  18, lnmaxso=   6.
 memorf : analysis of memory needs
================================================================================
 Values of the parameters that define the memory need for DATASET  2 (RF).
     intxc =       0      iscf =      -3    lmnmax =       6     lnmax =       6
     mgfft =      45  mpssoang =       3    mqgrid =    3001     natom =       2
  nloc_mem =       1    nspden =       1   nspinor =       1    nsppol =       1
      nsym =      48    n1xccc =    2501    ntypat =       1    occopt =       1
   xclevel =       2
-    mband =           6        mffmem =           1         mkmem =          31
-   mkqmem =          31        mk1mem =          31           mpw =        3356
      nfft =       91125          nkpt =         432
================================================================================
P This job should need less than                      51.002 Mbytes of memory.
  Rough estimation (10% accuracy) of disk space for files :
_ WF disk file :    132.734 Mbytes ; DEN or POT disk file :      0.697 Mbytes.
================================================================================
 
 Biggest array : cg(disk), with      9.5268 MBytes.
 memana : allocated an array of      9.527 Mbytes, for testing purposes.
 memana: allocated      51.002Mbytes, for testing purposes. 
 The job will continue.
 
 DATASET    3 : space group Fd -3 m (#227); Bravais cF (face-center cubic)
 
 getdim_nloc : deduce lmnmax  =  18, lnmax  =   6,
                      lmnmaxso=  18, lnmaxso=   6.
 memorf : analysis of memory needs
================================================================================
 Values of the parameters that define the memory need for DATASET  3 (RF).
     intxc =       0      iscf =       7    lmnmax =       6     lnmax =       6
     mgfft =      45  mpssoang =       3    mqgrid =    3001     natom =       2
  nloc_mem =       1    nspden =       1   nspinor =       1    nsppol =       1
      nsym =      48    n1xccc =    2501    ntypat =       1    occopt =       1
   xclevel =       2
-    mband =           6        mffmem =           1         mkmem =          31
-   mkqmem =          31        mk1mem =          31           mpw =        3356
      nfft =       91125          nkpt =         432
================================================================================
P This job should need less than                      51.697 Mbytes of memory.
  Rough estimation (10% accuracy) of disk space for files :
_ WF disk file :    132.734 Mbytes ; DEN or POT disk file :      0.697 Mbytes.
================================================================================
 
 Biggest array : cg(disk), with      9.5268 MBytes.
 memana : allocated an array of      9.527 Mbytes, for testing purposes.
 memana: allocated      51.697Mbytes, for testing purposes. 
 The job will continue.
--------------------------------------------------------------------------------
------------- Echo of variables that govern the present computation ------------
--------------------------------------------------------------------------------
-
- outvars: echo of selected default values                                      
-   iomode0 =  0 , fftalg0 =312 , wfoptalg0 =  0
-
- outvars: echo of global parameters not present in the input file              
-  max_nthreads =    0
-
 -outvars: echo values of preprocessed input variables --------
 
 These variables are accessible in NetCDF format (ddbo_OUT.nc)

            acell      1.0335941857E+01  1.0335941857E+01  1.0335941857E+01 Bohr
              amu      2.80855000E+01
             ecut      4.00000000E+01 Hartree
-          fftalg         312
           getddk1          0
           getddk2          0
           getddk3         -1
           getwfk1          0
           getwfk2         -1
           getwfk3         -2
             iscf1          7
             iscf2         -3
             iscf3          7
              ixc          11
           jdtset        1    2    3
              kpt1    -8.33333333E-02 -1.66666667E-01  0.00000000E+00
                      -8.33333333E-02 -3.33333333E-01  0.00000000E+00
                      -1.66666667E-01 -2.50000000E-01  0.00000000E+00
                      -8.33333333E-02 -2.50000000E-01  8.33333333E-02
                      -8.33333333E-02  5.00000000E-01  0.00000000E+00
                      -1.66666667E-01 -4.16666667E-01  0.00000000E+00
                      -8.33333333E-02 -4.16666667E-01  8.33333333E-02
                      -2.50000000E-01 -3.33333333E-01  0.00000000E+00
                      -1.66666667E-01 -3.33333333E-01  8.33333333E-02
                      -8.33333333E-02 -3.33333333E-01  1.66666667E-01
                      -8.33333333E-02  3.33333333E-01  0.00000000E+00
                      -1.66666667E-01  4.16666667E-01  0.00000000E+00
                      -2.50000000E-01  5.00000000E-01  0.00000000E+00
                      -1.66666667E-01  5.00000000E-01  8.33333333E-02
                      -3.33333333E-01 -4.16666667E-01  0.00000000E+00
                      -2.50000000E-01 -4.16666667E-01  8.33333333E-02
                      -1.66666667E-01 -4.16666667E-01  1.66666667E-01
                      -8.33333333E-02 -4.16666667E-01  2.50000000E-01
                      -8.33333333E-02  1.66666667E-01  0.00000000E+00
                      -1.66666667E-01  2.50000000E-01  0.00000000E+00
                      -2.50000000E-01  3.33333333E-01  0.00000000E+00
                      -3.33333333E-01  4.16666667E-01  0.00000000E+00
                      -4.16666667E-01  5.00000000E-01  0.00000000E+00
                      -3.33333333E-01  5.00000000E-01  8.33333333E-02
                      -2.50000000E-01  5.00000000E-01  1.66666667E-01
                      -8.33333333E-02  0.00000000E+00  0.00000000E+00
                      -2.50000000E-01  0.00000000E+00  0.00000000E+00
                      -4.16666667E-01  0.00000000E+00  0.00000000E+00
              kpt2    -8.33333333E-02 -1.66666667E-01  0.00000000E+00
                      -1.66666667E-01 -8.33333333E-02  0.00000000E+00
                      -8.33333333E-02 -8.33333333E-02  8.33333333E-02
                      -8.33333333E-02 -3.33333333E-01  0.00000000E+00
                      -1.66666667E-01 -2.50000000E-01  0.00000000E+00
                      -8.33333333E-02 -2.50000000E-01  8.33333333E-02
                      -2.50000000E-01 -1.66666667E-01  0.00000000E+00
                      -1.66666667E-01 -1.66666667E-01  8.33333333E-02
                      -8.33333333E-02 -1.66666667E-01  1.66666667E-01
                      -3.33333333E-01 -8.33333333E-02  0.00000000E+00
                      -2.50000000E-01 -8.33333333E-02  8.33333333E-02
                      -1.66666667E-01 -8.33333333E-02  1.66666667E-01
                      -8.33333333E-02 -8.33333333E-02  2.50000000E-01
                      -8.33333333E-02  5.00000000E-01  0.00000000E+00
                      -1.66666667E-01 -4.16666667E-01  0.00000000E+00
                      -8.33333333E-02 -4.16666667E-01  8.33333333E-02
                      -2.50000000E-01 -3.33333333E-01  0.00000000E+00
                      -1.66666667E-01 -3.33333333E-01  8.33333333E-02
                      -8.33333333E-02 -3.33333333E-01  1.66666667E-01
                      -3.33333333E-01 -2.50000000E-01  0.00000000E+00
                      -2.50000000E-01 -2.50000000E-01  8.33333333E-02
                      -1.66666667E-01 -2.50000000E-01  1.66666667E-01
                      -8.33333333E-02 -2.50000000E-01  2.50000000E-01
                      -4.16666667E-01 -1.66666667E-01  0.00000000E+00
                      -3.33333333E-01 -1.66666667E-01  8.33333333E-02
                      -2.50000000E-01 -1.66666667E-01  1.66666667E-01
                      -1.66666667E-01 -1.66666667E-01  2.50000000E-01
                      -8.33333333E-02 -1.66666667E-01  3.33333333E-01
                       5.00000000E-01 -8.33333333E-02  0.00000000E+00
                      -4.16666667E-01 -8.33333333E-02  8.33333333E-02
                      -3.33333333E-01 -8.33333333E-02  1.66666667E-01
                      -2.50000000E-01 -8.33333333E-02  2.50000000E-01
                      -1.66666667E-01 -8.33333333E-02  3.33333333E-01
                      -8.33333333E-02 -8.33333333E-02  4.16666667E-01
                      -8.33333333E-02  3.33333333E-01  0.00000000E+00
                      -1.66666667E-01  4.16666667E-01  0.00000000E+00
                      -8.33333333E-02  4.16666667E-01  8.33333333E-02
                      -2.50000000E-01  5.00000000E-01  0.00000000E+00
                      -1.66666667E-01  5.00000000E-01  8.33333333E-02
                      -8.33333333E-02  5.00000000E-01  1.66666667E-01
                      -3.33333333E-01 -4.16666667E-01  0.00000000E+00
                      -2.50000000E-01 -4.16666667E-01  8.33333333E-02
                      -1.66666667E-01 -4.16666667E-01  1.66666667E-01
                      -8.33333333E-02 -4.16666667E-01  2.50000000E-01
                      -4.16666667E-01 -3.33333333E-01  0.00000000E+00
                      -3.33333333E-01 -3.33333333E-01  8.33333333E-02
                      -2.50000000E-01 -3.33333333E-01  1.66666667E-01
                      -1.66666667E-01 -3.33333333E-01  2.50000000E-01
                      -8.33333333E-02 -3.33333333E-01  3.33333333E-01
                       5.00000000E-01 -2.50000000E-01  0.00000000E+00
              kpt3    -8.33333333E-02 -1.66666667E-01  0.00000000E+00
                      -1.66666667E-01 -8.33333333E-02  0.00000000E+00
                      -8.33333333E-02 -8.33333333E-02  8.33333333E-02
                      -8.33333333E-02 -3.33333333E-01  0.00000000E+00
                      -1.66666667E-01 -2.50000000E-01  0.00000000E+00
                      -8.33333333E-02 -2.50000000E-01  8.33333333E-02
                      -2.50000000E-01 -1.66666667E-01  0.00000000E+00
                      -1.66666667E-01 -1.66666667E-01  8.33333333E-02
                      -8.33333333E-02 -1.66666667E-01  1.66666667E-01
                      -3.33333333E-01 -8.33333333E-02  0.00000000E+00
                      -2.50000000E-01 -8.33333333E-02  8.33333333E-02
                      -1.66666667E-01 -8.33333333E-02  1.66666667E-01
                      -8.33333333E-02 -8.33333333E-02  2.50000000E-01
                      -8.33333333E-02  5.00000000E-01  0.00000000E+00
                      -1.66666667E-01 -4.16666667E-01  0.00000000E+00
                      -8.33333333E-02 -4.16666667E-01  8.33333333E-02
                      -2.50000000E-01 -3.33333333E-01  0.00000000E+00
                      -1.66666667E-01 -3.33333333E-01  8.33333333E-02
                      -8.33333333E-02 -3.33333333E-01  1.66666667E-01
                      -3.33333333E-01 -2.50000000E-01  0.00000000E+00
                      -2.50000000E-01 -2.50000000E-01  8.33333333E-02
                      -1.66666667E-01 -2.50000000E-01  1.66666667E-01
                      -8.33333333E-02 -2.50000000E-01  2.50000000E-01
                      -4.16666667E-01 -1.66666667E-01  0.00000000E+00
                      -3.33333333E-01 -1.66666667E-01  8.33333333E-02
                      -2.50000000E-01 -1.66666667E-01  1.66666667E-01
                      -1.66666667E-01 -1.66666667E-01  2.50000000E-01
                      -8.33333333E-02 -1.66666667E-01  3.33333333E-01
                       5.00000000E-01 -8.33333333E-02  0.00000000E+00
                      -4.16666667E-01 -8.33333333E-02  8.33333333E-02
                      -3.33333333E-01 -8.33333333E-02  1.66666667E-01
                      -2.50000000E-01 -8.33333333E-02  2.50000000E-01
                      -1.66666667E-01 -8.33333333E-02  3.33333333E-01
                      -8.33333333E-02 -8.33333333E-02  4.16666667E-01
                      -8.33333333E-02  3.33333333E-01  0.00000000E+00
                      -1.66666667E-01  4.16666667E-01  0.00000000E+00
                      -8.33333333E-02  4.16666667E-01  8.33333333E-02
                      -2.50000000E-01  5.00000000E-01  0.00000000E+00
                      -1.66666667E-01  5.00000000E-01  8.33333333E-02
                      -8.33333333E-02  5.00000000E-01  1.66666667E-01
                      -3.33333333E-01 -4.16666667E-01  0.00000000E+00
                      -2.50000000E-01 -4.16666667E-01  8.33333333E-02
                      -1.66666667E-01 -4.16666667E-01  1.66666667E-01
                      -8.33333333E-02 -4.16666667E-01  2.50000000E-01
                      -4.16666667E-01 -3.33333333E-01  0.00000000E+00
                      -3.33333333E-01 -3.33333333E-01  8.33333333E-02
                      -2.50000000E-01 -3.33333333E-01  1.66666667E-01
                      -1.66666667E-01 -3.33333333E-01  2.50000000E-01
                      -8.33333333E-02 -3.33333333E-01  3.33333333E-01
                       5.00000000E-01 -2.50000000E-01  0.00000000E+00
                       outvar_i_n : Printing only first  50 k-points.
           kptopt1          1
           kptopt2          2
           kptopt3          2
         kptrlatt        6   -6    6     -6    6    6     -6   -6    6
          kptrlen      6.20156511E+01
P           mkmem1          2
P           mkmem2         31
P           mkmem3         31
P          mkqmem1          2
P          mkqmem2         31
P          mkqmem3         31
P          mk1mem1          2
P          mk1mem2         31
P          mk1mem3         31
            natom           2
            nband1          6
            nband2          6
            nband3          6
           ndtset           3
            ngfft          45      45      45
             nkpt1         28
             nkpt2        432
             nkpt3        432
             nqpt1          0
             nqpt2          1
             nqpt3          1
            nstep          40
             nsym          48
           ntypat           1
              occ1     2.000000  2.000000  2.000000  2.000000  0.000000  0.000000
              occ2     2.000000  2.000000  2.000000  2.000000  0.000000  0.000000
              occ3     2.000000  2.000000  2.000000  2.000000  0.000000  0.000000
        optdriver1          0
        optdriver2          1
        optdriver3          1
          rfatpol           1       2
            rfdir1          0       0       0
            rfdir2          1       1       1
            rfdir3          1       1       1
           rfelfd1          0
           rfelfd2          2
           rfelfd3          3
           rfphon1          0
           rfphon2          0
           rfphon3          1
            rprim      5.0000000000E-01  5.0000000000E-01  0.0000000000E+00
                       0.0000000000E+00  5.0000000000E-01  5.0000000000E-01
                       5.0000000000E-01  0.0000000000E+00  5.0000000000E-01
           shiftk      5.00000000E-01  5.00000000E-01  5.00000000E-01
          spgroup         227
           symrel      1  0  0   0  1  0   0  0  1      -1  0  0   0 -1  0   0  0 -1
                       0 -1  1   0 -1  0   1 -1  0       0  1 -1   0  1  0  -1  1  0
                      -1  0  0  -1  0  1  -1  1  0       1  0  0   1  0 -1   1 -1  0
                       0  1 -1   1  0 -1   0  0 -1       0 -1  1  -1  0  1   0  0  1
                      -1  0  0  -1  1  0  -1  0  1       1  0  0   1 -1  0   1  0 -1
                       0 -1  1   1 -1  0   0 -1  0       0  1 -1  -1  1  0   0  1  0
                       1  0  0   0  0  1   0  1  0      -1  0  0   0  0 -1   0 -1  0
                       0  1 -1   0  0 -1   1  0 -1       0 -1  1   0  0  1  -1  0  1
                      -1  0  1  -1  1  0  -1  0  0       1  0 -1   1 -1  0   1  0  0
                       0 -1  0   1 -1  0   0 -1  1       0  1  0  -1  1  0   0  1 -1
                       1  0 -1   0  0 -1   0  1 -1      -1  0  1   0  0  1   0 -1  1
                       0  1  0   0  0  1   1  0  0       0 -1  0   0  0 -1  -1  0  0
                       1  0 -1   0  1 -1   0  0 -1      -1  0  1   0 -1  1   0  0  1
                       0 -1  0   0 -1  1   1 -1  0       0  1  0   0  1 -1  -1  1  0
                      -1  0  1  -1  0  0  -1  1  0       1  0 -1   1  0  0   1 -1  0
                       0  1  0   1  0  0   0  0  1       0 -1  0  -1  0  0   0  0 -1
                       0  0 -1   0  1 -1   1  0 -1       0  0  1   0 -1  1  -1  0  1
                       1 -1  0   0 -1  1   0 -1  0      -1  1  0   0  1 -1   0  1  0
                       0  0  1   1  0  0   0  1  0       0  0 -1  -1  0  0   0 -1  0
                      -1  1  0  -1  0  0  -1  0  1       1 -1  0   1  0  0   1  0 -1
                       0  0  1   0  1  0   1  0  0       0  0 -1   0 -1  0  -1  0  0
                       1 -1  0   0 -1  0   0 -1  1      -1  1  0   0  1  0   0  1 -1
                       0  0 -1   1  0 -1   0  1 -1       0  0  1  -1  0  1   0 -1  1
                      -1  1  0  -1  0  1  -1  0  0       1 -1  0   1  0 -1   1  0  0
            tnons      0.0000000  0.0000000  0.0000000     0.2500000  0.2500000  0.2500000
                       0.0000000  0.0000000  0.0000000     0.2500000  0.2500000  0.2500000
                       0.0000000  0.0000000  0.0000000     0.2500000  0.2500000  0.2500000
                       0.0000000  0.0000000  0.0000000     0.2500000  0.2500000  0.2500000
                       0.0000000  0.0000000  0.0000000     0.2500000  0.2500000  0.2500000
                       0.0000000  0.0000000  0.0000000     0.2500000  0.2500000  0.2500000
                       0.0000000  0.0000000  0.0000000     0.2500000  0.2500000  0.2500000
                       0.0000000  0.0000000  0.0000000     0.2500000  0.2500000  0.2500000
                       0.0000000  0.0000000  0.0000000     0.2500000  0.2500000  0.2500000
                       0.0000000  0.0000000  0.0000000     0.2500000  0.2500000  0.2500000
                       0.0000000  0.0000000  0.0000000     0.2500000  0.2500000  0.2500000
                       0.0000000  0.0000000  0.0000000     0.2500000  0.2500000  0.2500000
                       0.0000000  0.0000000  0.0000000     0.2500000  0.2500000  0.2500000
                       0.0000000  0.0000000  0.0000000     0.2500000  0.2500000  0.2500000
                       0.0000000  0.0000000  0.0000000     0.2500000  0.2500000  0.2500000
                       0.0000000  0.0000000  0.0000000     0.2500000  0.2500000  0.2500000
                       0.0000000  0.0000000  0.0000000     0.2500000  0.2500000  0.2500000
                       0.0000000  0.0000000  0.0000000     0.2500000  0.2500000  0.2500000
                       0.0000000  0.0000000  0.0000000     0.2500000  0.2500000  0.2500000
                       0.0000000  0.0000000  0.0000000     0.2500000  0.2500000  0.2500000
                       0.0000000  0.0000000  0.0000000     0.2500000  0.2500000  0.2500000
                       0.0000000  0.0000000  0.0000000     0.2500000  0.2500000  0.2500000
                       0.0000000  0.0000000  0.0000000     0.2500000  0.2500000  0.2500000
                       0.0000000  0.0000000  0.0000000     0.2500000  0.2500000  0.2500000
           tolvrs1     1.00000000E-10
           tolvrs2     0.00000000E+00
           tolvrs3     1.00000000E-08
           tolwfr1     0.00000000E+00
           tolwfr2     1.00000000E-15
           tolwfr3     0.00000000E+00
            typat      1  1
              wtk1       0.02778    0.02778    0.02778    0.05556    0.02778    0.02778
                         0.05556    0.02778    0.05556    0.05556    0.02778    0.02778
                         0.02778    0.05556    0.02778    0.05556    0.05556    0.05556
                         0.02778    0.02778    0.02778    0.02778    0.02778    0.05556
                         0.05556    0.00926    0.00926    0.00926
              wtk2       0.00231    0.00231    0.00231    0.00231    0.00231    0.00231
                         0.00231    0.00231    0.00231    0.00231    0.00231    0.00231
                         0.00231    0.00231    0.00231    0.00231    0.00231    0.00231
                         0.00231    0.00231    0.00231    0.00231    0.00231    0.00231
                         0.00231    0.00231    0.00231    0.00231    0.00231    0.00231
                         0.00231    0.00231    0.00231    0.00231    0.00231    0.00231
                         0.00231    0.00231    0.00231    0.00231    0.00231    0.00231
                         0.00231    0.00231    0.00231    0.00231    0.00231    0.00231
                         0.00231    0.00231
              wtk3       0.00231    0.00231    0.00231    0.00231    0.00231    0.00231
                         0.00231    0.00231    0.00231    0.00231    0.00231    0.00231
                         0.00231    0.00231    0.00231    0.00231    0.00231    0.00231
                         0.00231    0.00231    0.00231    0.00231    0.00231    0.00231
                         0.00231    0.00231    0.00231    0.00231    0.00231    0.00231
                         0.00231    0.00231    0.00231    0.00231    0.00231    0.00231
                         0.00231    0.00231    0.00231    0.00231    0.00231    0.00231
                         0.00231    0.00231    0.00231    0.00231    0.00231    0.00231
                         0.00231    0.00231
                       outvars : Printing only first  50 k-points.
           xangst      0.0000000000E+00  0.0000000000E+00  0.0000000000E+00
                       1.3673862150E+00  1.3673862150E+00  1.3673862150E+00
            xcart      0.0000000000E+00  0.0000000000E+00  0.0000000000E+00
                       2.5839854642E+00  2.5839854642E+00  2.5839854642E+00
             xred      0.0000000000E+00  0.0000000000E+00  0.0000000000E+00
                       2.5000000000E-01  2.5000000000E-01  2.5000000000E-01
            znucl       14.00000
 
================================================================================
 
 chkinp: Checking input parameters for consistency, jdtset=   1.
 
 chkinp: Checking input parameters for consistency, jdtset=   2.
 
 chkinp: Checking input parameters for consistency, jdtset=   3.
--------------------------------------------------------------------------
MPI_ABORT was invoked on rank 12 in communicator MPI_COMM_WORLD 
with errorcode 14.

NOTE: invoking MPI_ABORT causes Open MPI to kill all MPI processes.
You may or may not see output from other processes, depending on
exactly when Open MPI kills them.
--------------------------------------------------------------------------
forrtl: error (78): process killed (SIGTERM)
Image              PC                Routine            Line        Source             
libirc.so          00002AAAAFBDC229  Unknown               Unknown  Unknown
libirc.so          00002AAAAFBDABA0  Unknown               Unknown  Unknown
libifcore.so.5     00002AAAAE8A333F  Unknown               Unknown  Unknown
libifcore.so.5     00002AAAAE80AD7F  Unknown               Unknown  Unknown
libifcore.so.5     00002AAAAE81BF4E  Unknown               Unknown  Unknown
libpthread.so.0    000000343840F710  Unknown               Unknown  Unknown
libifcore.so.5     00002AAAAE889CFC  Unknown               Unknown  Unknown
abinit             00000000025359A2  Unknown               Unknown  Unknown
abinit             0000000002186B55  Unknown               Unknown  Unknown
abinit             000000000040C22A  Unknown               Unknown  Unknown
abinit             0000000000409F96  Unknown               Unknown  Unknown
libc.so.6          000000343801ED5D  Unknown               Unknown  Unknown
abinit             0000000000409E89  Unknown               Unknown  Unknown
forrtl: No such file or directory
forrtl: severe (28): CLOSE error, unit 1024, file "Unknown"
Image              PC                Routine            Line        Source             
libifcore.so.5     00002AAAAE7FE544  Unknown               Unknown  Unknown
abinit             0000000002AADC7A  Unknown               Unknown  Unknown
abinit             0000000002A92720  Unknown               Unknown  Unknown
abinit             0000000002536048  Unknown               Unknown  Unknown
abinit             0000000002186B55  Unknown               Unknown  Unknown
abinit             000000000040C22A  Unknown               Unknown  Unknown
abinit             0000000000409F96  Unknown               Unknown  Unknown
libc.so.6          00000039E861ED5D  Unknown               Unknown  Unknown
abinit             0000000000409E89  Unknown               Unknown  Unknown
forrtl: error (78): process killed (SIGTERM)
Image              PC                Routine            Line        Source             
libirc.so          00002AAAAFBDC229  Unknown               Unknown  Unknown
libirc.so          00002AAAAFBDABA0  Unknown               Unknown  Unknown
libifcore.so.5     00002AAAAE8A333F  Unknown               Unknown  Unknown
libifcore.so.5     00002AAAAE80AD7F  Unknown               Unknown  Unknown
libifcore.so.5     00002AAAAE81BF4E  Unknown               Unknown  Unknown
libpthread.so.0    0000003A4CA0F710  Unknown               Unknown  Unknown
libifcore.so.5     00002AAAAE889CFC  Unknown               Unknown  Unknown
abinit             00000000025359A2  Unknown               Unknown  Unknown
abinit             0000000002186B55  Unknown               Unknown  Unknown
abinit             000000000040C22A  Unknown               Unknown  Unknown
abinit             0000000000409F96  Unknown               Unknown  Unknown
libc.so.6          0000003A4C61ED5D  Unknown               Unknown  Unknown
abinit             0000000000409E89  Unknown               Unknown  Unknown
forrtl: error (78): process killed (SIGTERM)
Image              PC                Routine            Line        Source             
libirc.so          00002AAAAFBDC229  Unknown               Unknown  Unknown
libirc.so          00002AAAAFBDABA0  Unknown               Unknown  Unknown
libifcore.so.5     00002AAAAE8A333F  Unknown               Unknown  Unknown
libifcore.so.5     00002AAAAE80AD7F  Unknown               Unknown  Unknown
libifcore.so.5     00002AAAAE81BF4E  Unknown               Unknown  Unknown
libpthread.so.0    000000343060F710  Unknown               Unknown  Unknown
libifcore.so.5     00002AAAAE889CFC  Unknown               Unknown  Unknown
abinit             00000000025359A2  Unknown               Unknown  Unknown
abinit             0000000002186B55  Unknown               Unknown  Unknown
abinit             000000000040C22A  Unknown               Unknown  Unknown
abinit             0000000000409F96  Unknown               Unknown  Unknown
libc.so.6          000000343021ED5D  Unknown               Unknown  Unknown
abinit             0000000000409E89  Unknown               Unknown  Unknown
forrtl: error (78): process killed (SIGTERM)
Image              PC                Routine            Line        Source             
libirc.so          00002AAAAFBDC229  Unknown               Unknown  Unknown
libirc.so          00002AAAAFBDABA0  Unknown               Unknown  Unknown
libifcore.so.5     00002AAAAE8A333F  Unknown               Unknown  Unknown
libifcore.so.5     00002AAAAE80AD7F  Unknown               Unknown  Unknown
libifcore.so.5     00002AAAAE81BF4E  Unknown               Unknown  Unknown
libpthread.so.0    0000003589A0F710  Unknown               Unknown  Unknown
libifcore.so.5     00002AAAAE889CFC  Unknown               Unknown  Unknown
abinit             00000000025359A2  Unknown               Unknown  Unknown
abinit             0000000002186B55  Unknown               Unknown  Unknown
abinit             000000000040C22A  Unknown               Unknown  Unknown
abinit             0000000000409F96  Unknown               Unknown  Unknown
libc.so.6          000000358961ED5D  Unknown               Unknown  Unknown
abinit             0000000000409E89  Unknown               Unknown  Unknown
forrtl: error (78): process killed (SIGTERM)
Image              PC                Routine            Line        Source             
libirc.so          00002AAAAFBDC229  Unknown               Unknown  Unknown
libirc.so          00002AAAAFBDABA0  Unknown               Unknown  Unknown
libifcore.so.5     00002AAAAE8A333F  Unknown               Unknown  Unknown
libifcore.so.5     00002AAAAE80AD7F  Unknown               Unknown  Unknown
libifcore.so.5     00002AAAAE81BF4E  Unknown               Unknown  Unknown
libpthread.so.0    0000003D7560F710  Unknown               Unknown  Unknown
libifcore.so.5     00002AAAAE889D03  Unknown               Unknown  Unknown
abinit             00000000025359A2  Unknown               Unknown  Unknown
abinit             0000000002186B55  Unknown               Unknown  Unknown
abinit             000000000040C22A  Unknown               Unknown  Unknown
abinit             0000000000409F96  Unknown               Unknown  Unknown
libc.so.6          0000003D7521ED5D  Unknown               Unknown  Unknown
abinit             0000000000409E89  Unknown               Unknown  Unknown
forrtl: error (78): process killed (SIGTERM)
Image              PC                Routine            Line        Source             
libirc.so          00002AAAAFBDC229  Unknown               Unknown  Unknown
libirc.so          00002AAAAFBDABA0  Unknown               Unknown  Unknown
libifcore.so.5     00002AAAAE8A333F  Unknown               Unknown  Unknown
libifcore.so.5     00002AAAAE80AD7F  Unknown               Unknown  Unknown
libifcore.so.5     00002AAAAE81BF4E  Unknown               Unknown  Unknown
libpthread.so.0    00000039E8A0F710  Unknown               Unknown  Unknown
libifcore.so.5     00002AAAAE889D03  Unknown               Unknown  Unknown
abinit             00000000025359A2  Unknown               Unknown  Unknown
abinit             0000000002186B55  Unknown               Unknown  Unknown
abinit             000000000040C22A  Unknown               Unknown  Unknown
abinit             0000000000409F96  Unknown               Unknown  Unknown
libc.so.6          00000039E861ED5D  Unknown               Unknown  Unknown
abinit             0000000000409E89  Unknown               Unknown  Unknown
forrtl: error (78): process killed (SIGTERM)
Image              PC                Routine            Line        Source             
libirc.so          00002AAAAFBDC229  Unknown               Unknown  Unknown
libirc.so          00002AAAAFBDABA0  Unknown               Unknown  Unknown
libifcore.so.5     00002AAAAE8A333F  Unknown               Unknown  Unknown
libifcore.so.5     00002AAAAE80AD7F  Unknown               Unknown  Unknown
libifcore.so.5     00002AAAAE81BF4E  Unknown               Unknown  Unknown
libpthread.so.0    00000039E8A0F710  Unknown               Unknown  Unknown
libc.so.6          00000039E86DADF5  Unknown               Unknown  Unknown
libifcore.so.5     00002AAAAE821CEE  Unknown               Unknown  Unknown
abinit             0000000002AA8E64  Unknown               Unknown  Unknown
abinit             0000000002A926E9  Unknown               Unknown  Unknown
abinit             0000000002536048  Unknown               Unknown  Unknown
abinit             0000000002186B55  Unknown               Unknown  Unknown
abinit             000000000040C22A  Unknown               Unknown  Unknown
abinit             0000000000409F96  Unknown               Unknown  Unknown
libc.so.6          00000039E861ED5D  Unknown               Unknown  Unknown
abinit             0000000000409E89  Unknown               Unknown  Unknown
forrtl: error (78): process killed (SIGTERM)
Image              PC                Routine            Line        Source             
libirc.so          00002AAAAFBDC229  Unknown               Unknown  Unknown
libirc.so          00002AAAAFBDABA0  Unknown               Unknown  Unknown
libifcore.so.5     00002AAAAE8A333F  Unknown               Unknown  Unknown
libifcore.so.5     00002AAAAE80AD7F  Unknown               Unknown  Unknown
libifcore.so.5     00002AAAAE81BF4E  Unknown               Unknown  Unknown
libpthread.so.0    00000039E8A0F710  Unknown               Unknown  Unknown
libifcore.so.5     00002AAAAE889D03  Unknown               Unknown  Unknown
abinit             00000000025359A2  Unknown               Unknown  Unknown
abinit             0000000002186B55  Unknown               Unknown  Unknown
abinit             000000000040C22A  Unknown               Unknown  Unknown
abinit             0000000000409F96  Unknown               Unknown  Unknown
libc.so.6          00000039E861ED5D  Unknown               Unknown  Unknown
abinit             0000000000409E89  Unknown               Unknown  Unknown
forrtl: error (78): process killed (SIGTERM)
Image              PC                Routine            Line        Source             
libirc.so          00002AAAAFBDC229  Unknown               Unknown  Unknown
libirc.so          00002AAAAFBDABA0  Unknown               Unknown  Unknown
libifcore.so.5     00002AAAAE8A333F  Unknown               Unknown  Unknown
libifcore.so.5     00002AAAAE80AD7F  Unknown               Unknown  Unknown
libifcore.so.5     00002AAAAE81BF4E  Unknown               Unknown  Unknown
libpthread.so.0    0000003317C0F710  Unknown               Unknown  Unknown
libifcore.so.5     00002AAAAE889D03  Unknown               Unknown  Unknown
abinit             00000000025359A2  Unknown               Unknown  Unknown
abinit             0000000002186B55  Unknown               Unknown  Unknown
abinit             000000000040C22A  Unknown               Unknown  Unknown
abinit             0000000000409F96  Unknown               Unknown  Unknown
libc.so.6          000000331781ED5D  Unknown               Unknown  Unknown
abinit             0000000000409E89  Unknown               Unknown  Unknown
forrtl: error (78): process killed (SIGTERM)
Image              PC                Routine            Line        Source             
libirc.so          00002AAAAFBDC229  Unknown               Unknown  Unknown
libirc.so          00002AAAAFBDABA0  Unknown               Unknown  Unknown
libifcore.so.5     00002AAAAE8A333F  Unknown               Unknown  Unknown
libifcore.so.5     00002AAAAE80AD7F  Unknown               Unknown  Unknown
libifcore.so.5     00002AAAAE81BF4E  Unknown               Unknown  Unknown
libpthread.so.0    0000003FCD00F710  Unknown               Unknown  Unknown
libifcore.so.5     00002AAAAE889D03  Unknown               Unknown  Unknown
abinit             00000000025359A2  Unknown               Unknown  Unknown
abinit             0000000002186B55  Unknown               Unknown  Unknown
abinit             000000000040C22A  Unknown               Unknown  Unknown
abinit             0000000000409F96  Unknown               Unknown  Unknown
libc.so.6          0000003FCCC1ED5D  Unknown               Unknown  Unknown
abinit             0000000000409E89  Unknown               Unknown  Unknown
forrtl: error (78): process killed (SIGTERM)
Image              PC                Routine            Line        Source             
libirc.so          00002AAAAFBDC229  Unknown               Unknown  Unknown
libirc.so          00002AAAAFBDABA0  Unknown               Unknown  Unknown
libifcore.so.5     00002AAAAE8A333F  Unknown               Unknown  Unknown
libifcore.so.5     00002AAAAE80AD7F  Unknown               Unknown  Unknown
libifcore.so.5     00002AAAAE81BF4E  Unknown               Unknown  Unknown
libpthread.so.0    000000309D80F710  Unknown               Unknown  Unknown
libifcore.so.5     00002AAAAE889CFC  Unknown               Unknown  Unknown
abinit             00000000025359A2  Unknown               Unknown  Unknown
abinit             0000000002186B55  Unknown               Unknown  Unknown
abinit             000000000040C22A  Unknown               Unknown  Unknown
abinit             0000000000409F96  Unknown               Unknown  Unknown
libc.so.6          000000309D41ED5D  Unknown               Unknown  Unknown
abinit             0000000000409E89  Unknown               Unknown  Unknown
