
.Version 8.10.3 of ABINIT 
.(MPI version, prepared for a x86_64_linux_gnu5.4 computer) 

.Copyright (C) 1998-2018 ABINIT group . 
 ABINIT comes with ABSOLUTELY NO WARRANTY.
 It is free software, and you are welcome to redistribute it
 under certain conditions (GNU General Public License,
 see ~abinit/COPYING or http://www.gnu.org/copyleft/gpl.txt).

 ABINIT is a project of the Universite Catholique de Louvain,
 Corning Inc. and other collaborators, see ~abinit/doc/developers/contributors.txt .
 Please read https://docs.abinit.org/theory/acknowledgments for suggested
 acknowledgments of the ABINIT effort.
 For more information, see https://www.abinit.org .

.Starting date : Thu 14 Nov 2019.
- ( at 15h36 )
  
- input  file    -> tnlo_6.in
- output file    -> tnlo_6.out
- root for input  files -> tnlo_6i
- root for output files -> tnlo_6o


 DATASET   11 : space group F-4 3 m (#216); Bravais cF (face-center cubic)
================================================================================
 Values of the parameters that define the memory need for DATASET 11.
     intxc =       0    ionmov =       0      iscf =       7    lmnmax =       2
     lnmax =       2     mgfft =      16  mpssoang =       3    mqgrid =    3001
     natom =       2  nloc_mem =       1    nspden =       1   nspinor =       1
    nsppol =       1      nsym =      24    n1xccc =    2501    ntypat =       2
    occopt =       1   xclevel =       1
-    mband =           5        mffmem =           1         mkmem =           7
       mpw =         186          nfft =        4096          nkpt =          28
================================================================================
P This job should need less than                       2.106 Mbytes of memory.
  Rough estimation (10% accuracy) of disk space for files :
_ WF disk file :      0.399 Mbytes ; DEN or POT disk file :      0.033 Mbytes.
================================================================================


 DATASET   12 : space group F-4 3 m (#216); Bravais cF (face-center cubic)
================================================================================
 Values of the parameters that define the memory need for DATASET 12.
     intxc =       0    ionmov =       0      iscf =      -2    lmnmax =       2
     lnmax =       2     mgfft =      16  mpssoang =       3    mqgrid =    3001
     natom =       2  nloc_mem =       1    nspden =       1   nspinor =       1
    nsppol =       1      nsym =      24    n1xccc =    2501    ntypat =       2
    occopt =       1   xclevel =       1
-    mband =           4        mffmem =           1         mkmem =         108
       mpw =         186          nfft =        4096          nkpt =         432
================================================================================
P This job should need less than                       3.190 Mbytes of memory.
  Rough estimation (10% accuracy) of disk space for files :
_ WF disk file :      4.906 Mbytes ; DEN or POT disk file :      0.033 Mbytes.
================================================================================


 DATASET   13 : space group F-4 3 m (#216); Bravais cF (face-center cubic)
================================================================================
 Values of the parameters that define the memory need for DATASET 13 (RF).
     intxc =       0      iscf =       7    lmnmax =       2     lnmax =       2
     mgfft =      16  mpssoang =       3    mqgrid =    3001     natom =       2
  nloc_mem =       1    nspden =       1   nspinor =       1    nsppol =       1
      nsym =      24    n1xccc =    2501    ntypat =       2    occopt =       1
   xclevel =       1
-    mband =           4        mffmem =           1         mkmem =         108
-   mkqmem =         108        mk1mem =         108           mpw =         186
      nfft =        4096          nkpt =         432
================================================================================
P This job should need less than                       6.055 Mbytes of memory.
  Rough estimation (10% accuracy) of disk space for files :
_ WF disk file :      4.906 Mbytes ; DEN or POT disk file :      0.033 Mbytes.
================================================================================


 DATASET   14 : space group F-4 3 m (#216); Bravais cF (face-center cubic)
================================================================================
 Values of the parameters that define the memory need for DATASET 14 (RF).
     intxc =       0      iscf =       7    lmnmax =       2     lnmax =       2
     mgfft =      16  mpssoang =       3    mqgrid =    3001     natom =       2
  nloc_mem =       1    nspden =       1   nspinor =       1    nsppol =       1
      nsym =      24    n1xccc =    2501    ntypat =       2    occopt =       1
   xclevel =       1
-    mband =           4        mffmem =           1         mkmem =         108
-   mkqmem =         108        mk1mem =         108           mpw =         186
      nfft =        4096          nkpt =         432
================================================================================
P This job should need less than                       6.055 Mbytes of memory.
  Rough estimation (10% accuracy) of disk space for files :
_ WF disk file :      4.906 Mbytes ; DEN or POT disk file :      0.033 Mbytes.
================================================================================


 DATASET   21 : space group Im m 2 (# 44); Bravais oI (body-center ortho.)
================================================================================
 Values of the parameters that define the memory need for DATASET 21.
     intxc =       0    ionmov =       0      iscf =       7    lmnmax =       2
     lnmax =       2     mgfft =      16  mpssoang =       3    mqgrid =    3001
     natom =       2  nloc_mem =       1    nspden =       1   nspinor =       1
    nsppol =       1      nsym =       4    n1xccc =    2501    ntypat =       2
    occopt =       1   xclevel =       1
-    mband =           5        mffmem =           1         mkmem =          32
       mpw =         186          nfft =        4096          nkpt =         126
================================================================================
P This job should need less than                       2.588 Mbytes of memory.
  Rough estimation (10% accuracy) of disk space for files :
_ WF disk file :      1.790 Mbytes ; DEN or POT disk file :      0.033 Mbytes.
================================================================================


 DATASET   22 : space group Im m 2 (# 44); Bravais oI (body-center ortho.)
================================================================================
 Values of the parameters that define the memory need for DATASET 22.
     intxc =       0    ionmov =       0      iscf =      -2    lmnmax =       2
     lnmax =       2     mgfft =      16  mpssoang =       3    mqgrid =    3001
     natom =       2  nloc_mem =       1    nspden =       1   nspinor =       1
    nsppol =       1      nsym =       4    n1xccc =    2501    ntypat =       2
    occopt =       1   xclevel =       1
-    mband =           4        mffmem =           1         mkmem =         108
       mpw =         186          nfft =        4096          nkpt =         432
================================================================================
P This job should need less than                       3.189 Mbytes of memory.
  Rough estimation (10% accuracy) of disk space for files :
_ WF disk file :      4.906 Mbytes ; DEN or POT disk file :      0.033 Mbytes.
================================================================================


 DATASET   23 : space group Im m 2 (# 44); Bravais oI (body-center ortho.)
================================================================================
 Values of the parameters that define the memory need for DATASET 23 (RF).
     intxc =       0      iscf =       7    lmnmax =       2     lnmax =       2
     mgfft =      16  mpssoang =       3    mqgrid =    3001     natom =       2
  nloc_mem =       1    nspden =       1   nspinor =       1    nsppol =       1
      nsym =       4    n1xccc =    2501    ntypat =       2    occopt =       1
   xclevel =       1
-    mband =           4        mffmem =           1         mkmem =         108
-   mkqmem =         108        mk1mem =         108           mpw =         186
      nfft =        4096          nkpt =         432
================================================================================
P This job should need less than                       6.053 Mbytes of memory.
  Rough estimation (10% accuracy) of disk space for files :
_ WF disk file :      4.906 Mbytes ; DEN or POT disk file :      0.033 Mbytes.
================================================================================


 DATASET   24 : space group Im m 2 (# 44); Bravais oI (body-center ortho.)
================================================================================
 Values of the parameters that define the memory need for DATASET 24 (RF).
     intxc =       0      iscf =       7    lmnmax =       2     lnmax =       2
     mgfft =      16  mpssoang =       3    mqgrid =    3001     natom =       2
  nloc_mem =       1    nspden =       1   nspinor =       1    nsppol =       1
      nsym =       4    n1xccc =    2501    ntypat =       2    occopt =       1
   xclevel =       1
-    mband =           4        mffmem =           1         mkmem =         108
-   mkqmem =         108        mk1mem =         108           mpw =         186
      nfft =        4096          nkpt =         432
================================================================================
P This job should need less than                       6.053 Mbytes of memory.
  Rough estimation (10% accuracy) of disk space for files :
_ WF disk file :      4.906 Mbytes ; DEN or POT disk file :      0.033 Mbytes.
================================================================================


 DATASET   31 : space group Im m 2 (# 44); Bravais oI (body-center ortho.)
================================================================================
 Values of the parameters that define the memory need for DATASET 31.
     intxc =       0    ionmov =       0      iscf =       7    lmnmax =       2
     lnmax =       2     mgfft =      16  mpssoang =       3    mqgrid =    3001
     natom =       2  nloc_mem =       1    nspden =       1   nspinor =       1
    nsppol =       1      nsym =       4    n1xccc =    2501    ntypat =       2
    occopt =       1   xclevel =       1
-    mband =           5        mffmem =           1         mkmem =          32
       mpw =         186          nfft =        4096          nkpt =         126
================================================================================
P This job should need less than                       2.588 Mbytes of memory.
  Rough estimation (10% accuracy) of disk space for files :
_ WF disk file :      1.790 Mbytes ; DEN or POT disk file :      0.033 Mbytes.
================================================================================


 DATASET   32 : space group Im m 2 (# 44); Bravais oI (body-center ortho.)
================================================================================
 Values of the parameters that define the memory need for DATASET 32.
     intxc =       0    ionmov =       0      iscf =      -2    lmnmax =       2
     lnmax =       2     mgfft =      16  mpssoang =       3    mqgrid =    3001
     natom =       2  nloc_mem =       1    nspden =       1   nspinor =       1
    nsppol =       1      nsym =       4    n1xccc =    2501    ntypat =       2
    occopt =       1   xclevel =       1
-    mband =           4        mffmem =           1         mkmem =         108
       mpw =         186          nfft =        4096          nkpt =         432
================================================================================
P This job should need less than                       3.189 Mbytes of memory.
  Rough estimation (10% accuracy) of disk space for files :
_ WF disk file :      4.906 Mbytes ; DEN or POT disk file :      0.033 Mbytes.
================================================================================


 DATASET   33 : space group Im m 2 (# 44); Bravais oI (body-center ortho.)
================================================================================
 Values of the parameters that define the memory need for DATASET 33 (RF).
     intxc =       0      iscf =       7    lmnmax =       2     lnmax =       2
     mgfft =      16  mpssoang =       3    mqgrid =    3001     natom =       2
  nloc_mem =       1    nspden =       1   nspinor =       1    nsppol =       1
      nsym =       4    n1xccc =    2501    ntypat =       2    occopt =       1
   xclevel =       1
-    mband =           4        mffmem =           1         mkmem =         108
-   mkqmem =         108        mk1mem =         108           mpw =         186
      nfft =        4096          nkpt =         432
================================================================================
P This job should need less than                       6.053 Mbytes of memory.
  Rough estimation (10% accuracy) of disk space for files :
_ WF disk file :      4.906 Mbytes ; DEN or POT disk file :      0.033 Mbytes.
================================================================================


 DATASET   34 : space group Im m 2 (# 44); Bravais oI (body-center ortho.)
================================================================================
 Values of the parameters that define the memory need for DATASET 34 (RF).
     intxc =       0      iscf =       7    lmnmax =       2     lnmax =       2
     mgfft =      16  mpssoang =       3    mqgrid =    3001     natom =       2
  nloc_mem =       1    nspden =       1   nspinor =       1    nsppol =       1
      nsym =       4    n1xccc =    2501    ntypat =       2    occopt =       1
   xclevel =       1
-    mband =           4        mffmem =           1         mkmem =         108
-   mkqmem =         108        mk1mem =         108           mpw =         186
      nfft =        4096          nkpt =         432
================================================================================
P This job should need less than                       6.053 Mbytes of memory.
  Rough estimation (10% accuracy) of disk space for files :
_ WF disk file :      4.906 Mbytes ; DEN or POT disk file :      0.033 Mbytes.
================================================================================

--------------------------------------------------------------------------------
------------- Echo of variables that govern the present computation ------------
--------------------------------------------------------------------------------
-
- outvars: echo of selected default values                                      
-   iomode0 =  0 , fftalg0 =312 , wfoptalg0 =  0
-
- outvars: echo of global parameters not present in the input file              
-  max_nthreads =    1
-
 -outvars: echo values of preprocessed input variables --------
            acell      1.0530000000E+01  1.0530000000E+01  1.0530000000E+01 Bohr
              amu      2.69815390E+01  7.49215900E+01
          dilatmx      1.05000000E+00
             ecut      5.00000000E+00 Hartree
           ecutsm      5.00000000E-01 Hartree
-          fftalg         312
           getddk11         0
           getddk12         0
           getddk13         0
           getddk14        -1
           getddk21         0
           getddk22         0
           getddk23         0
           getddk24        -1
           getddk31         0
           getddk32         0
           getddk33         0
           getddk34        -1
           getden11         0
           getden12        -1
           getden13         0
           getden14         0
           getden21         0
           getden22        -1
           getden23         0
           getden24         0
           getden31         0
           getden32        -1
           getden33         0
           getden34         0
           getwfk11         0
           getwfk12        -1
           getwfk13        -1
           getwfk14        -2
           getwfk21         0
           getwfk22        -1
           getwfk23        -1
           getwfk24        -2
           getwfk31         0
           getwfk32        -1
           getwfk33        -1
           getwfk34        -2
             iscf11         7
             iscf12        -2
             iscf13         7
             iscf14         7
             iscf21         7
             iscf22        -2
             iscf23         7
             iscf24         7
             iscf31         7
             iscf32        -2
             iscf33         7
             iscf34         7
              ixc           3
           jdtset       11   12   13   14   21   22   23   24   31   32
                        33   34
              kpt11   -8.33333333E-02 -1.66666667E-01  0.00000000E+00
                      -8.33333333E-02 -3.33333333E-01  0.00000000E+00
                      -1.66666667E-01 -2.50000000E-01  0.00000000E+00
                      -8.33333333E-02 -2.50000000E-01  8.33333333E-02
                      -8.33333333E-02  5.00000000E-01  0.00000000E+00
                      -1.66666667E-01 -4.16666667E-01  0.00000000E+00
                      -8.33333333E-02 -4.16666667E-01  8.33333333E-02
                      -2.50000000E-01 -3.33333333E-01  0.00000000E+00
                      -1.66666667E-01 -3.33333333E-01  8.33333333E-02
                      -8.33333333E-02 -3.33333333E-01  1.66666667E-01
                      -8.33333333E-02  3.33333333E-01  0.00000000E+00
                      -1.66666667E-01  4.16666667E-01  0.00000000E+00
                      -2.50000000E-01  5.00000000E-01  0.00000000E+00
                      -1.66666667E-01  5.00000000E-01  8.33333333E-02
                      -3.33333333E-01 -4.16666667E-01  0.00000000E+00
                      -2.50000000E-01 -4.16666667E-01  8.33333333E-02
                      -1.66666667E-01 -4.16666667E-01  1.66666667E-01
                      -8.33333333E-02 -4.16666667E-01  2.50000000E-01
                      -8.33333333E-02  1.66666667E-01  0.00000000E+00
                      -1.66666667E-01  2.50000000E-01  0.00000000E+00
                      -2.50000000E-01  3.33333333E-01  0.00000000E+00
                      -3.33333333E-01  4.16666667E-01  0.00000000E+00
                      -4.16666667E-01  5.00000000E-01  0.00000000E+00
                      -3.33333333E-01  5.00000000E-01  8.33333333E-02
                      -2.50000000E-01  5.00000000E-01  1.66666667E-01
                      -8.33333333E-02  0.00000000E+00  0.00000000E+00
                      -2.50000000E-01  0.00000000E+00  0.00000000E+00
                      -4.16666667E-01  0.00000000E+00  0.00000000E+00
              kpt12   -8.33333333E-02 -1.66666667E-01  0.00000000E+00
                      -1.66666667E-01 -8.33333333E-02  0.00000000E+00
                      -8.33333333E-02 -8.33333333E-02  8.33333333E-02
                      -8.33333333E-02 -3.33333333E-01  0.00000000E+00
                      -1.66666667E-01 -2.50000000E-01  0.00000000E+00
                      -8.33333333E-02 -2.50000000E-01  8.33333333E-02
                      -2.50000000E-01 -1.66666667E-01  0.00000000E+00
                      -1.66666667E-01 -1.66666667E-01  8.33333333E-02
                      -8.33333333E-02 -1.66666667E-01  1.66666667E-01
                      -3.33333333E-01 -8.33333333E-02  0.00000000E+00
                      -2.50000000E-01 -8.33333333E-02  8.33333333E-02
                      -1.66666667E-01 -8.33333333E-02  1.66666667E-01
                      -8.33333333E-02 -8.33333333E-02  2.50000000E-01
                      -8.33333333E-02  5.00000000E-01  0.00000000E+00
                      -1.66666667E-01 -4.16666667E-01  0.00000000E+00
                      -8.33333333E-02 -4.16666667E-01  8.33333333E-02
                      -2.50000000E-01 -3.33333333E-01  0.00000000E+00
                      -1.66666667E-01 -3.33333333E-01  8.33333333E-02
                      -8.33333333E-02 -3.33333333E-01  1.66666667E-01
                      -3.33333333E-01 -2.50000000E-01  0.00000000E+00
                      -2.50000000E-01 -2.50000000E-01  8.33333333E-02
                      -1.66666667E-01 -2.50000000E-01  1.66666667E-01
                      -8.33333333E-02 -2.50000000E-01  2.50000000E-01
                      -4.16666667E-01 -1.66666667E-01  0.00000000E+00
                      -3.33333333E-01 -1.66666667E-01  8.33333333E-02
                      -2.50000000E-01 -1.66666667E-01  1.66666667E-01
                      -1.66666667E-01 -1.66666667E-01  2.50000000E-01
                      -8.33333333E-02 -1.66666667E-01  3.33333333E-01
                       5.00000000E-01 -8.33333333E-02  0.00000000E+00
                      -4.16666667E-01 -8.33333333E-02  8.33333333E-02
                      -3.33333333E-01 -8.33333333E-02  1.66666667E-01
                      -2.50000000E-01 -8.33333333E-02  2.50000000E-01
                      -1.66666667E-01 -8.33333333E-02  3.33333333E-01
                      -8.33333333E-02 -8.33333333E-02  4.16666667E-01
                      -8.33333333E-02  3.33333333E-01  0.00000000E+00
                      -1.66666667E-01  4.16666667E-01  0.00000000E+00
                      -8.33333333E-02  4.16666667E-01  8.33333333E-02
                      -2.50000000E-01  5.00000000E-01  0.00000000E+00
                      -1.66666667E-01  5.00000000E-01  8.33333333E-02
                      -8.33333333E-02  5.00000000E-01  1.66666667E-01
                      -3.33333333E-01 -4.16666667E-01  0.00000000E+00
                      -2.50000000E-01 -4.16666667E-01  8.33333333E-02
                      -1.66666667E-01 -4.16666667E-01  1.66666667E-01
                      -8.33333333E-02 -4.16666667E-01  2.50000000E-01
                      -4.16666667E-01 -3.33333333E-01  0.00000000E+00
                      -3.33333333E-01 -3.33333333E-01  8.33333333E-02
                      -2.50000000E-01 -3.33333333E-01  1.66666667E-01
                      -1.66666667E-01 -3.33333333E-01  2.50000000E-01
                      -8.33333333E-02 -3.33333333E-01  3.33333333E-01
                       5.00000000E-01 -2.50000000E-01  0.00000000E+00
              kpt13   -8.33333333E-02 -1.66666667E-01  0.00000000E+00
                      -1.66666667E-01 -8.33333333E-02  0.00000000E+00
                      -8.33333333E-02 -8.33333333E-02  8.33333333E-02
                      -8.33333333E-02 -3.33333333E-01  0.00000000E+00
                      -1.66666667E-01 -2.50000000E-01  0.00000000E+00
                      -8.33333333E-02 -2.50000000E-01  8.33333333E-02
                      -2.50000000E-01 -1.66666667E-01  0.00000000E+00
                      -1.66666667E-01 -1.66666667E-01  8.33333333E-02
                      -8.33333333E-02 -1.66666667E-01  1.66666667E-01
                      -3.33333333E-01 -8.33333333E-02  0.00000000E+00
                      -2.50000000E-01 -8.33333333E-02  8.33333333E-02
                      -1.66666667E-01 -8.33333333E-02  1.66666667E-01
                      -8.33333333E-02 -8.33333333E-02  2.50000000E-01
                      -8.33333333E-02  5.00000000E-01  0.00000000E+00
                      -1.66666667E-01 -4.16666667E-01  0.00000000E+00
                      -8.33333333E-02 -4.16666667E-01  8.33333333E-02
                      -2.50000000E-01 -3.33333333E-01  0.00000000E+00
                      -1.66666667E-01 -3.33333333E-01  8.33333333E-02
                      -8.33333333E-02 -3.33333333E-01  1.66666667E-01
                      -3.33333333E-01 -2.50000000E-01  0.00000000E+00
                      -2.50000000E-01 -2.50000000E-01  8.33333333E-02
                      -1.66666667E-01 -2.50000000E-01  1.66666667E-01
                      -8.33333333E-02 -2.50000000E-01  2.50000000E-01
                      -4.16666667E-01 -1.66666667E-01  0.00000000E+00
                      -3.33333333E-01 -1.66666667E-01  8.33333333E-02
                      -2.50000000E-01 -1.66666667E-01  1.66666667E-01
                      -1.66666667E-01 -1.66666667E-01  2.50000000E-01
                      -8.33333333E-02 -1.66666667E-01  3.33333333E-01
                       5.00000000E-01 -8.33333333E-02  0.00000000E+00
                      -4.16666667E-01 -8.33333333E-02  8.33333333E-02
                      -3.33333333E-01 -8.33333333E-02  1.66666667E-01
                      -2.50000000E-01 -8.33333333E-02  2.50000000E-01
                      -1.66666667E-01 -8.33333333E-02  3.33333333E-01
                      -8.33333333E-02 -8.33333333E-02  4.16666667E-01
                      -8.33333333E-02  3.33333333E-01  0.00000000E+00
                      -1.66666667E-01  4.16666667E-01  0.00000000E+00
                      -8.33333333E-02  4.16666667E-01  8.33333333E-02
                      -2.50000000E-01  5.00000000E-01  0.00000000E+00
                      -1.66666667E-01  5.00000000E-01  8.33333333E-02
                      -8.33333333E-02  5.00000000E-01  1.66666667E-01
                      -3.33333333E-01 -4.16666667E-01  0.00000000E+00
                      -2.50000000E-01 -4.16666667E-01  8.33333333E-02
                      -1.66666667E-01 -4.16666667E-01  1.66666667E-01
                      -8.33333333E-02 -4.16666667E-01  2.50000000E-01
                      -4.16666667E-01 -3.33333333E-01  0.00000000E+00
                      -3.33333333E-01 -3.33333333E-01  8.33333333E-02
                      -2.50000000E-01 -3.33333333E-01  1.66666667E-01
                      -1.66666667E-01 -3.33333333E-01  2.50000000E-01
                      -8.33333333E-02 -3.33333333E-01  3.33333333E-01
                       5.00000000E-01 -2.50000000E-01  0.00000000E+00
              kpt14   -8.33333333E-02 -1.66666667E-01  0.00000000E+00
                      -1.66666667E-01 -8.33333333E-02  0.00000000E+00
                      -8.33333333E-02 -8.33333333E-02  8.33333333E-02
                      -8.33333333E-02 -3.33333333E-01  0.00000000E+00
                      -1.66666667E-01 -2.50000000E-01  0.00000000E+00
                      -8.33333333E-02 -2.50000000E-01  8.33333333E-02
                      -2.50000000E-01 -1.66666667E-01  0.00000000E+00
                      -1.66666667E-01 -1.66666667E-01  8.33333333E-02
                      -8.33333333E-02 -1.66666667E-01  1.66666667E-01
                      -3.33333333E-01 -8.33333333E-02  0.00000000E+00
                      -2.50000000E-01 -8.33333333E-02  8.33333333E-02
                      -1.66666667E-01 -8.33333333E-02  1.66666667E-01
                      -8.33333333E-02 -8.33333333E-02  2.50000000E-01
                      -8.33333333E-02  5.00000000E-01  0.00000000E+00
                      -1.66666667E-01 -4.16666667E-01  0.00000000E+00
                      -8.33333333E-02 -4.16666667E-01  8.33333333E-02
                      -2.50000000E-01 -3.33333333E-01  0.00000000E+00
                      -1.66666667E-01 -3.33333333E-01  8.33333333E-02
                      -8.33333333E-02 -3.33333333E-01  1.66666667E-01
                      -3.33333333E-01 -2.50000000E-01  0.00000000E+00
                      -2.50000000E-01 -2.50000000E-01  8.33333333E-02
                      -1.66666667E-01 -2.50000000E-01  1.66666667E-01
                      -8.33333333E-02 -2.50000000E-01  2.50000000E-01
                      -4.16666667E-01 -1.66666667E-01  0.00000000E+00
                      -3.33333333E-01 -1.66666667E-01  8.33333333E-02
                      -2.50000000E-01 -1.66666667E-01  1.66666667E-01
                      -1.66666667E-01 -1.66666667E-01  2.50000000E-01
                      -8.33333333E-02 -1.66666667E-01  3.33333333E-01
                       5.00000000E-01 -8.33333333E-02  0.00000000E+00
                      -4.16666667E-01 -8.33333333E-02  8.33333333E-02
                      -3.33333333E-01 -8.33333333E-02  1.66666667E-01
                      -2.50000000E-01 -8.33333333E-02  2.50000000E-01
                      -1.66666667E-01 -8.33333333E-02  3.33333333E-01
                      -8.33333333E-02 -8.33333333E-02  4.16666667E-01
                      -8.33333333E-02  3.33333333E-01  0.00000000E+00
                      -1.66666667E-01  4.16666667E-01  0.00000000E+00
                      -8.33333333E-02  4.16666667E-01  8.33333333E-02
                      -2.50000000E-01  5.00000000E-01  0.00000000E+00
                      -1.66666667E-01  5.00000000E-01  8.33333333E-02
                      -8.33333333E-02  5.00000000E-01  1.66666667E-01
                      -3.33333333E-01 -4.16666667E-01  0.00000000E+00
                      -2.50000000E-01 -4.16666667E-01  8.33333333E-02
                      -1.66666667E-01 -4.16666667E-01  1.66666667E-01
                      -8.33333333E-02 -4.16666667E-01  2.50000000E-01
                      -4.16666667E-01 -3.33333333E-01  0.00000000E+00
                      -3.33333333E-01 -3.33333333E-01  8.33333333E-02
                      -2.50000000E-01 -3.33333333E-01  1.66666667E-01
                      -1.66666667E-01 -3.33333333E-01  2.50000000E-01
                      -8.33333333E-02 -3.33333333E-01  3.33333333E-01
                       5.00000000E-01 -2.50000000E-01  0.00000000E+00
              kpt21   -8.33333333E-02 -1.66666667E-01  0.00000000E+00
                      -1.66666667E-01 -8.33333333E-02  0.00000000E+00
                      -8.33333333E-02 -3.33333333E-01  0.00000000E+00
                      -1.66666667E-01 -2.50000000E-01  0.00000000E+00
                      -8.33333333E-02 -2.50000000E-01  8.33333333E-02
                      -2.50000000E-01 -1.66666667E-01  0.00000000E+00
                      -3.33333333E-01 -8.33333333E-02  0.00000000E+00
                      -2.50000000E-01 -8.33333333E-02  8.33333333E-02
                      -1.66666667E-01 -8.33333333E-02  1.66666667E-01
                      -8.33333333E-02  5.00000000E-01  0.00000000E+00
                      -1.66666667E-01 -4.16666667E-01  0.00000000E+00
                      -8.33333333E-02 -4.16666667E-01  8.33333333E-02
                      -2.50000000E-01 -3.33333333E-01  0.00000000E+00
                      -1.66666667E-01 -3.33333333E-01  8.33333333E-02
                      -8.33333333E-02 -3.33333333E-01  1.66666667E-01
                      -3.33333333E-01 -2.50000000E-01  0.00000000E+00
                      -4.16666667E-01 -1.66666667E-01  0.00000000E+00
                      -3.33333333E-01 -1.66666667E-01  8.33333333E-02
                      -2.50000000E-01 -1.66666667E-01  1.66666667E-01
                       5.00000000E-01 -8.33333333E-02  0.00000000E+00
                      -4.16666667E-01 -8.33333333E-02  8.33333333E-02
                      -3.33333333E-01 -8.33333333E-02  1.66666667E-01
                      -2.50000000E-01 -8.33333333E-02  2.50000000E-01
                      -1.66666667E-01 -8.33333333E-02  3.33333333E-01
                      -8.33333333E-02  3.33333333E-01  0.00000000E+00
                      -1.66666667E-01  4.16666667E-01  0.00000000E+00
                      -8.33333333E-02  4.16666667E-01  8.33333333E-02
                      -2.50000000E-01  5.00000000E-01  0.00000000E+00
                      -1.66666667E-01  5.00000000E-01  8.33333333E-02
                      -8.33333333E-02  5.00000000E-01  1.66666667E-01
                      -3.33333333E-01 -4.16666667E-01  0.00000000E+00
                      -2.50000000E-01 -4.16666667E-01  8.33333333E-02
                      -1.66666667E-01 -4.16666667E-01  1.66666667E-01
                      -8.33333333E-02 -4.16666667E-01  2.50000000E-01
                      -4.16666667E-01 -3.33333333E-01  0.00000000E+00
                       5.00000000E-01 -2.50000000E-01  0.00000000E+00
                      -4.16666667E-01 -2.50000000E-01  8.33333333E-02
                      -3.33333333E-01 -2.50000000E-01  1.66666667E-01
                       4.16666667E-01 -1.66666667E-01  0.00000000E+00
                       5.00000000E-01 -1.66666667E-01  8.33333333E-02
                      -4.16666667E-01 -1.66666667E-01  1.66666667E-01
                      -3.33333333E-01 -1.66666667E-01  2.50000000E-01
                      -2.50000000E-01 -1.66666667E-01  3.33333333E-01
                       3.33333333E-01 -8.33333333E-02  0.00000000E+00
                      -4.16666667E-01 -8.33333333E-02  2.50000000E-01
                      -3.33333333E-01 -8.33333333E-02  3.33333333E-01
                      -8.33333333E-02  1.66666667E-01  0.00000000E+00
                      -1.66666667E-01  2.50000000E-01  0.00000000E+00
                      -8.33333333E-02  2.50000000E-01  8.33333333E-02
                      -2.50000000E-01  3.33333333E-01  0.00000000E+00
              kpt22   -8.33333333E-02 -1.66666667E-01  0.00000000E+00
                      -1.66666667E-01 -8.33333333E-02  0.00000000E+00
                      -8.33333333E-02 -8.33333333E-02  8.33333333E-02
                      -8.33333333E-02 -3.33333333E-01  0.00000000E+00
                      -1.66666667E-01 -2.50000000E-01  0.00000000E+00
                      -8.33333333E-02 -2.50000000E-01  8.33333333E-02
                      -2.50000000E-01 -1.66666667E-01  0.00000000E+00
                      -1.66666667E-01 -1.66666667E-01  8.33333333E-02
                      -8.33333333E-02 -1.66666667E-01  1.66666667E-01
                      -3.33333333E-01 -8.33333333E-02  0.00000000E+00
                      -2.50000000E-01 -8.33333333E-02  8.33333333E-02
                      -1.66666667E-01 -8.33333333E-02  1.66666667E-01
                      -8.33333333E-02 -8.33333333E-02  2.50000000E-01
                      -8.33333333E-02  5.00000000E-01  0.00000000E+00
                      -1.66666667E-01 -4.16666667E-01  0.00000000E+00
                      -8.33333333E-02 -4.16666667E-01  8.33333333E-02
                      -2.50000000E-01 -3.33333333E-01  0.00000000E+00
                      -1.66666667E-01 -3.33333333E-01  8.33333333E-02
                      -8.33333333E-02 -3.33333333E-01  1.66666667E-01
                      -3.33333333E-01 -2.50000000E-01  0.00000000E+00
                      -2.50000000E-01 -2.50000000E-01  8.33333333E-02
                      -1.66666667E-01 -2.50000000E-01  1.66666667E-01
                      -8.33333333E-02 -2.50000000E-01  2.50000000E-01
                      -4.16666667E-01 -1.66666667E-01  0.00000000E+00
                      -3.33333333E-01 -1.66666667E-01  8.33333333E-02
                      -2.50000000E-01 -1.66666667E-01  1.66666667E-01
                      -1.66666667E-01 -1.66666667E-01  2.50000000E-01
                      -8.33333333E-02 -1.66666667E-01  3.33333333E-01
                       5.00000000E-01 -8.33333333E-02  0.00000000E+00
                      -4.16666667E-01 -8.33333333E-02  8.33333333E-02
                      -3.33333333E-01 -8.33333333E-02  1.66666667E-01
                      -2.50000000E-01 -8.33333333E-02  2.50000000E-01
                      -1.66666667E-01 -8.33333333E-02  3.33333333E-01
                      -8.33333333E-02 -8.33333333E-02  4.16666667E-01
                      -8.33333333E-02  3.33333333E-01  0.00000000E+00
                      -1.66666667E-01  4.16666667E-01  0.00000000E+00
                      -8.33333333E-02  4.16666667E-01  8.33333333E-02
                      -2.50000000E-01  5.00000000E-01  0.00000000E+00
                      -1.66666667E-01  5.00000000E-01  8.33333333E-02
                      -8.33333333E-02  5.00000000E-01  1.66666667E-01
                      -3.33333333E-01 -4.16666667E-01  0.00000000E+00
                      -2.50000000E-01 -4.16666667E-01  8.33333333E-02
                      -1.66666667E-01 -4.16666667E-01  1.66666667E-01
                      -8.33333333E-02 -4.16666667E-01  2.50000000E-01
                      -4.16666667E-01 -3.33333333E-01  0.00000000E+00
                      -3.33333333E-01 -3.33333333E-01  8.33333333E-02
                      -2.50000000E-01 -3.33333333E-01  1.66666667E-01
                      -1.66666667E-01 -3.33333333E-01  2.50000000E-01
                      -8.33333333E-02 -3.33333333E-01  3.33333333E-01
                       5.00000000E-01 -2.50000000E-01  0.00000000E+00
              kpt23   -8.33333333E-02 -1.66666667E-01  0.00000000E+00
                      -1.66666667E-01 -8.33333333E-02  0.00000000E+00
                      -8.33333333E-02 -8.33333333E-02  8.33333333E-02
                      -8.33333333E-02 -3.33333333E-01  0.00000000E+00
                      -1.66666667E-01 -2.50000000E-01  0.00000000E+00
                      -8.33333333E-02 -2.50000000E-01  8.33333333E-02
                      -2.50000000E-01 -1.66666667E-01  0.00000000E+00
                      -1.66666667E-01 -1.66666667E-01  8.33333333E-02
                      -8.33333333E-02 -1.66666667E-01  1.66666667E-01
                      -3.33333333E-01 -8.33333333E-02  0.00000000E+00
                      -2.50000000E-01 -8.33333333E-02  8.33333333E-02
                      -1.66666667E-01 -8.33333333E-02  1.66666667E-01
                      -8.33333333E-02 -8.33333333E-02  2.50000000E-01
                      -8.33333333E-02  5.00000000E-01  0.00000000E+00
                      -1.66666667E-01 -4.16666667E-01  0.00000000E+00
                      -8.33333333E-02 -4.16666667E-01  8.33333333E-02
                      -2.50000000E-01 -3.33333333E-01  0.00000000E+00
                      -1.66666667E-01 -3.33333333E-01  8.33333333E-02
                      -8.33333333E-02 -3.33333333E-01  1.66666667E-01
                      -3.33333333E-01 -2.50000000E-01  0.00000000E+00
                      -2.50000000E-01 -2.50000000E-01  8.33333333E-02
                      -1.66666667E-01 -2.50000000E-01  1.66666667E-01
                      -8.33333333E-02 -2.50000000E-01  2.50000000E-01
                      -4.16666667E-01 -1.66666667E-01  0.00000000E+00
                      -3.33333333E-01 -1.66666667E-01  8.33333333E-02
                      -2.50000000E-01 -1.66666667E-01  1.66666667E-01
                      -1.66666667E-01 -1.66666667E-01  2.50000000E-01
                      -8.33333333E-02 -1.66666667E-01  3.33333333E-01
                       5.00000000E-01 -8.33333333E-02  0.00000000E+00
                      -4.16666667E-01 -8.33333333E-02  8.33333333E-02
                      -3.33333333E-01 -8.33333333E-02  1.66666667E-01
                      -2.50000000E-01 -8.33333333E-02  2.50000000E-01
                      -1.66666667E-01 -8.33333333E-02  3.33333333E-01
                      -8.33333333E-02 -8.33333333E-02  4.16666667E-01
                      -8.33333333E-02  3.33333333E-01  0.00000000E+00
                      -1.66666667E-01  4.16666667E-01  0.00000000E+00
                      -8.33333333E-02  4.16666667E-01  8.33333333E-02
                      -2.50000000E-01  5.00000000E-01  0.00000000E+00
                      -1.66666667E-01  5.00000000E-01  8.33333333E-02
                      -8.33333333E-02  5.00000000E-01  1.66666667E-01
                      -3.33333333E-01 -4.16666667E-01  0.00000000E+00
                      -2.50000000E-01 -4.16666667E-01  8.33333333E-02
                      -1.66666667E-01 -4.16666667E-01  1.66666667E-01
                      -8.33333333E-02 -4.16666667E-01  2.50000000E-01
                      -4.16666667E-01 -3.33333333E-01  0.00000000E+00
                      -3.33333333E-01 -3.33333333E-01  8.33333333E-02
                      -2.50000000E-01 -3.33333333E-01  1.66666667E-01
                      -1.66666667E-01 -3.33333333E-01  2.50000000E-01
                      -8.33333333E-02 -3.33333333E-01  3.33333333E-01
                       5.00000000E-01 -2.50000000E-01  0.00000000E+00
              kpt24   -8.33333333E-02 -1.66666667E-01  0.00000000E+00
                      -1.66666667E-01 -8.33333333E-02  0.00000000E+00
                      -8.33333333E-02 -8.33333333E-02  8.33333333E-02
                      -8.33333333E-02 -3.33333333E-01  0.00000000E+00
                      -1.66666667E-01 -2.50000000E-01  0.00000000E+00
                      -8.33333333E-02 -2.50000000E-01  8.33333333E-02
                      -2.50000000E-01 -1.66666667E-01  0.00000000E+00
                      -1.66666667E-01 -1.66666667E-01  8.33333333E-02
                      -8.33333333E-02 -1.66666667E-01  1.66666667E-01
                      -3.33333333E-01 -8.33333333E-02  0.00000000E+00
                      -2.50000000E-01 -8.33333333E-02  8.33333333E-02
                      -1.66666667E-01 -8.33333333E-02  1.66666667E-01
                      -8.33333333E-02 -8.33333333E-02  2.50000000E-01
                      -8.33333333E-02  5.00000000E-01  0.00000000E+00
                      -1.66666667E-01 -4.16666667E-01  0.00000000E+00
                      -8.33333333E-02 -4.16666667E-01  8.33333333E-02
                      -2.50000000E-01 -3.33333333E-01  0.00000000E+00
                      -1.66666667E-01 -3.33333333E-01  8.33333333E-02
                      -8.33333333E-02 -3.33333333E-01  1.66666667E-01
                      -3.33333333E-01 -2.50000000E-01  0.00000000E+00
                      -2.50000000E-01 -2.50000000E-01  8.33333333E-02
                      -1.66666667E-01 -2.50000000E-01  1.66666667E-01
                      -8.33333333E-02 -2.50000000E-01  2.50000000E-01
                      -4.16666667E-01 -1.66666667E-01  0.00000000E+00
                      -3.33333333E-01 -1.66666667E-01  8.33333333E-02
                      -2.50000000E-01 -1.66666667E-01  1.66666667E-01
                      -1.66666667E-01 -1.66666667E-01  2.50000000E-01
                      -8.33333333E-02 -1.66666667E-01  3.33333333E-01
                       5.00000000E-01 -8.33333333E-02  0.00000000E+00
                      -4.16666667E-01 -8.33333333E-02  8.33333333E-02
                      -3.33333333E-01 -8.33333333E-02  1.66666667E-01
                      -2.50000000E-01 -8.33333333E-02  2.50000000E-01
                      -1.66666667E-01 -8.33333333E-02  3.33333333E-01
                      -8.33333333E-02 -8.33333333E-02  4.16666667E-01
                      -8.33333333E-02  3.33333333E-01  0.00000000E+00
                      -1.66666667E-01  4.16666667E-01  0.00000000E+00
                      -8.33333333E-02  4.16666667E-01  8.33333333E-02
                      -2.50000000E-01  5.00000000E-01  0.00000000E+00
                      -1.66666667E-01  5.00000000E-01  8.33333333E-02
                      -8.33333333E-02  5.00000000E-01  1.66666667E-01
                      -3.33333333E-01 -4.16666667E-01  0.00000000E+00
                      -2.50000000E-01 -4.16666667E-01  8.33333333E-02
                      -1.66666667E-01 -4.16666667E-01  1.66666667E-01
                      -8.33333333E-02 -4.16666667E-01  2.50000000E-01
                      -4.16666667E-01 -3.33333333E-01  0.00000000E+00
                      -3.33333333E-01 -3.33333333E-01  8.33333333E-02
                      -2.50000000E-01 -3.33333333E-01  1.66666667E-01
                      -1.66666667E-01 -3.33333333E-01  2.50000000E-01
                      -8.33333333E-02 -3.33333333E-01  3.33333333E-01
                       5.00000000E-01 -2.50000000E-01  0.00000000E+00
              kpt31   -8.33333333E-02 -1.66666667E-01  0.00000000E+00
                      -1.66666667E-01 -8.33333333E-02  0.00000000E+00
                      -8.33333333E-02 -3.33333333E-01  0.00000000E+00
                      -1.66666667E-01 -2.50000000E-01  0.00000000E+00
                      -8.33333333E-02 -2.50000000E-01  8.33333333E-02
                      -2.50000000E-01 -1.66666667E-01  0.00000000E+00
                      -3.33333333E-01 -8.33333333E-02  0.00000000E+00
                      -2.50000000E-01 -8.33333333E-02  8.33333333E-02
                      -1.66666667E-01 -8.33333333E-02  1.66666667E-01
                      -8.33333333E-02  5.00000000E-01  0.00000000E+00
                      -1.66666667E-01 -4.16666667E-01  0.00000000E+00
                      -8.33333333E-02 -4.16666667E-01  8.33333333E-02
                      -2.50000000E-01 -3.33333333E-01  0.00000000E+00
                      -1.66666667E-01 -3.33333333E-01  8.33333333E-02
                      -8.33333333E-02 -3.33333333E-01  1.66666667E-01
                      -3.33333333E-01 -2.50000000E-01  0.00000000E+00
                      -4.16666667E-01 -1.66666667E-01  0.00000000E+00
                      -3.33333333E-01 -1.66666667E-01  8.33333333E-02
                      -2.50000000E-01 -1.66666667E-01  1.66666667E-01
                       5.00000000E-01 -8.33333333E-02  0.00000000E+00
                      -4.16666667E-01 -8.33333333E-02  8.33333333E-02
                      -3.33333333E-01 -8.33333333E-02  1.66666667E-01
                      -2.50000000E-01 -8.33333333E-02  2.50000000E-01
                      -1.66666667E-01 -8.33333333E-02  3.33333333E-01
                      -8.33333333E-02  3.33333333E-01  0.00000000E+00
                      -1.66666667E-01  4.16666667E-01  0.00000000E+00
                      -8.33333333E-02  4.16666667E-01  8.33333333E-02
                      -2.50000000E-01  5.00000000E-01  0.00000000E+00
                      -1.66666667E-01  5.00000000E-01  8.33333333E-02
                      -8.33333333E-02  5.00000000E-01  1.66666667E-01
                      -3.33333333E-01 -4.16666667E-01  0.00000000E+00
                      -2.50000000E-01 -4.16666667E-01  8.33333333E-02
                      -1.66666667E-01 -4.16666667E-01  1.66666667E-01
                      -8.33333333E-02 -4.16666667E-01  2.50000000E-01
                      -4.16666667E-01 -3.33333333E-01  0.00000000E+00
                       5.00000000E-01 -2.50000000E-01  0.00000000E+00
                      -4.16666667E-01 -2.50000000E-01  8.33333333E-02
                      -3.33333333E-01 -2.50000000E-01  1.66666667E-01
                       4.16666667E-01 -1.66666667E-01  0.00000000E+00
                       5.00000000E-01 -1.66666667E-01  8.33333333E-02
                      -4.16666667E-01 -1.66666667E-01  1.66666667E-01
                      -3.33333333E-01 -1.66666667E-01  2.50000000E-01
                      -2.50000000E-01 -1.66666667E-01  3.33333333E-01
                       3.33333333E-01 -8.33333333E-02  0.00000000E+00
                      -4.16666667E-01 -8.33333333E-02  2.50000000E-01
                      -3.33333333E-01 -8.33333333E-02  3.33333333E-01
                      -8.33333333E-02  1.66666667E-01  0.00000000E+00
                      -1.66666667E-01  2.50000000E-01  0.00000000E+00
                      -8.33333333E-02  2.50000000E-01  8.33333333E-02
                      -2.50000000E-01  3.33333333E-01  0.00000000E+00
              kpt32   -8.33333333E-02 -1.66666667E-01  0.00000000E+00
                      -1.66666667E-01 -8.33333333E-02  0.00000000E+00
                      -8.33333333E-02 -8.33333333E-02  8.33333333E-02
                      -8.33333333E-02 -3.33333333E-01  0.00000000E+00
                      -1.66666667E-01 -2.50000000E-01  0.00000000E+00
                      -8.33333333E-02 -2.50000000E-01  8.33333333E-02
                      -2.50000000E-01 -1.66666667E-01  0.00000000E+00
                      -1.66666667E-01 -1.66666667E-01  8.33333333E-02
                      -8.33333333E-02 -1.66666667E-01  1.66666667E-01
                      -3.33333333E-01 -8.33333333E-02  0.00000000E+00
                      -2.50000000E-01 -8.33333333E-02  8.33333333E-02
                      -1.66666667E-01 -8.33333333E-02  1.66666667E-01
                      -8.33333333E-02 -8.33333333E-02  2.50000000E-01
                      -8.33333333E-02  5.00000000E-01  0.00000000E+00
                      -1.66666667E-01 -4.16666667E-01  0.00000000E+00
                      -8.33333333E-02 -4.16666667E-01  8.33333333E-02
                      -2.50000000E-01 -3.33333333E-01  0.00000000E+00
                      -1.66666667E-01 -3.33333333E-01  8.33333333E-02
                      -8.33333333E-02 -3.33333333E-01  1.66666667E-01
                      -3.33333333E-01 -2.50000000E-01  0.00000000E+00
                      -2.50000000E-01 -2.50000000E-01  8.33333333E-02
                      -1.66666667E-01 -2.50000000E-01  1.66666667E-01
                      -8.33333333E-02 -2.50000000E-01  2.50000000E-01
                      -4.16666667E-01 -1.66666667E-01  0.00000000E+00
                      -3.33333333E-01 -1.66666667E-01  8.33333333E-02
                      -2.50000000E-01 -1.66666667E-01  1.66666667E-01
                      -1.66666667E-01 -1.66666667E-01  2.50000000E-01
                      -8.33333333E-02 -1.66666667E-01  3.33333333E-01
                       5.00000000E-01 -8.33333333E-02  0.00000000E+00
                      -4.16666667E-01 -8.33333333E-02  8.33333333E-02
                      -3.33333333E-01 -8.33333333E-02  1.66666667E-01
                      -2.50000000E-01 -8.33333333E-02  2.50000000E-01
                      -1.66666667E-01 -8.33333333E-02  3.33333333E-01
                      -8.33333333E-02 -8.33333333E-02  4.16666667E-01
                      -8.33333333E-02  3.33333333E-01  0.00000000E+00
                      -1.66666667E-01  4.16666667E-01  0.00000000E+00
                      -8.33333333E-02  4.16666667E-01  8.33333333E-02
                      -2.50000000E-01  5.00000000E-01  0.00000000E+00
                      -1.66666667E-01  5.00000000E-01  8.33333333E-02
                      -8.33333333E-02  5.00000000E-01  1.66666667E-01
                      -3.33333333E-01 -4.16666667E-01  0.00000000E+00
                      -2.50000000E-01 -4.16666667E-01  8.33333333E-02
                      -1.66666667E-01 -4.16666667E-01  1.66666667E-01
                      -8.33333333E-02 -4.16666667E-01  2.50000000E-01
                      -4.16666667E-01 -3.33333333E-01  0.00000000E+00
                      -3.33333333E-01 -3.33333333E-01  8.33333333E-02
                      -2.50000000E-01 -3.33333333E-01  1.66666667E-01
                      -1.66666667E-01 -3.33333333E-01  2.50000000E-01
                      -8.33333333E-02 -3.33333333E-01  3.33333333E-01
                       5.00000000E-01 -2.50000000E-01  0.00000000E+00
              kpt33   -8.33333333E-02 -1.66666667E-01  0.00000000E+00
                      -1.66666667E-01 -8.33333333E-02  0.00000000E+00
                      -8.33333333E-02 -8.33333333E-02  8.33333333E-02
                      -8.33333333E-02 -3.33333333E-01  0.00000000E+00
                      -1.66666667E-01 -2.50000000E-01  0.00000000E+00
                      -8.33333333E-02 -2.50000000E-01  8.33333333E-02
                      -2.50000000E-01 -1.66666667E-01  0.00000000E+00
                      -1.66666667E-01 -1.66666667E-01  8.33333333E-02
                      -8.33333333E-02 -1.66666667E-01  1.66666667E-01
                      -3.33333333E-01 -8.33333333E-02  0.00000000E+00
                      -2.50000000E-01 -8.33333333E-02  8.33333333E-02
                      -1.66666667E-01 -8.33333333E-02  1.66666667E-01
                      -8.33333333E-02 -8.33333333E-02  2.50000000E-01
                      -8.33333333E-02  5.00000000E-01  0.00000000E+00
                      -1.66666667E-01 -4.16666667E-01  0.00000000E+00
                      -8.33333333E-02 -4.16666667E-01  8.33333333E-02
                      -2.50000000E-01 -3.33333333E-01  0.00000000E+00
                      -1.66666667E-01 -3.33333333E-01  8.33333333E-02
                      -8.33333333E-02 -3.33333333E-01  1.66666667E-01
                      -3.33333333E-01 -2.50000000E-01  0.00000000E+00
                      -2.50000000E-01 -2.50000000E-01  8.33333333E-02
                      -1.66666667E-01 -2.50000000E-01  1.66666667E-01
                      -8.33333333E-02 -2.50000000E-01  2.50000000E-01
                      -4.16666667E-01 -1.66666667E-01  0.00000000E+00
                      -3.33333333E-01 -1.66666667E-01  8.33333333E-02
                      -2.50000000E-01 -1.66666667E-01  1.66666667E-01
                      -1.66666667E-01 -1.66666667E-01  2.50000000E-01
                      -8.33333333E-02 -1.66666667E-01  3.33333333E-01
                       5.00000000E-01 -8.33333333E-02  0.00000000E+00
                      -4.16666667E-01 -8.33333333E-02  8.33333333E-02
                      -3.33333333E-01 -8.33333333E-02  1.66666667E-01
                      -2.50000000E-01 -8.33333333E-02  2.50000000E-01
                      -1.66666667E-01 -8.33333333E-02  3.33333333E-01
                      -8.33333333E-02 -8.33333333E-02  4.16666667E-01
                      -8.33333333E-02  3.33333333E-01  0.00000000E+00
                      -1.66666667E-01  4.16666667E-01  0.00000000E+00
                      -8.33333333E-02  4.16666667E-01  8.33333333E-02
                      -2.50000000E-01  5.00000000E-01  0.00000000E+00
                      -1.66666667E-01  5.00000000E-01  8.33333333E-02
                      -8.33333333E-02  5.00000000E-01  1.66666667E-01
                      -3.33333333E-01 -4.16666667E-01  0.00000000E+00
                      -2.50000000E-01 -4.16666667E-01  8.33333333E-02
                      -1.66666667E-01 -4.16666667E-01  1.66666667E-01
                      -8.33333333E-02 -4.16666667E-01  2.50000000E-01
                      -4.16666667E-01 -3.33333333E-01  0.00000000E+00
                      -3.33333333E-01 -3.33333333E-01  8.33333333E-02
                      -2.50000000E-01 -3.33333333E-01  1.66666667E-01
                      -1.66666667E-01 -3.33333333E-01  2.50000000E-01
                      -8.33333333E-02 -3.33333333E-01  3.33333333E-01
                       5.00000000E-01 -2.50000000E-01  0.00000000E+00
              kpt34   -8.33333333E-02 -1.66666667E-01  0.00000000E+00
                      -1.66666667E-01 -8.33333333E-02  0.00000000E+00
                      -8.33333333E-02 -8.33333333E-02  8.33333333E-02
                      -8.33333333E-02 -3.33333333E-01  0.00000000E+00
                      -1.66666667E-01 -2.50000000E-01  0.00000000E+00
                      -8.33333333E-02 -2.50000000E-01  8.33333333E-02
                      -2.50000000E-01 -1.66666667E-01  0.00000000E+00
                      -1.66666667E-01 -1.66666667E-01  8.33333333E-02
                      -8.33333333E-02 -1.66666667E-01  1.66666667E-01
                      -3.33333333E-01 -8.33333333E-02  0.00000000E+00
                      -2.50000000E-01 -8.33333333E-02  8.33333333E-02
                      -1.66666667E-01 -8.33333333E-02  1.66666667E-01
                      -8.33333333E-02 -8.33333333E-02  2.50000000E-01
                      -8.33333333E-02  5.00000000E-01  0.00000000E+00
                      -1.66666667E-01 -4.16666667E-01  0.00000000E+00
                      -8.33333333E-02 -4.16666667E-01  8.33333333E-02
                      -2.50000000E-01 -3.33333333E-01  0.00000000E+00
                      -1.66666667E-01 -3.33333333E-01  8.33333333E-02
                      -8.33333333E-02 -3.33333333E-01  1.66666667E-01
                      -3.33333333E-01 -2.50000000E-01  0.00000000E+00
                      -2.50000000E-01 -2.50000000E-01  8.33333333E-02
                      -1.66666667E-01 -2.50000000E-01  1.66666667E-01
                      -8.33333333E-02 -2.50000000E-01  2.50000000E-01
                      -4.16666667E-01 -1.66666667E-01  0.00000000E+00
                      -3.33333333E-01 -1.66666667E-01  8.33333333E-02
                      -2.50000000E-01 -1.66666667E-01  1.66666667E-01
                      -1.66666667E-01 -1.66666667E-01  2.50000000E-01
                      -8.33333333E-02 -1.66666667E-01  3.33333333E-01
                       5.00000000E-01 -8.33333333E-02  0.00000000E+00
                      -4.16666667E-01 -8.33333333E-02  8.33333333E-02
                      -3.33333333E-01 -8.33333333E-02  1.66666667E-01
                      -2.50000000E-01 -8.33333333E-02  2.50000000E-01
                      -1.66666667E-01 -8.33333333E-02  3.33333333E-01
                      -8.33333333E-02 -8.33333333E-02  4.16666667E-01
                      -8.33333333E-02  3.33333333E-01  0.00000000E+00
                      -1.66666667E-01  4.16666667E-01  0.00000000E+00
                      -8.33333333E-02  4.16666667E-01  8.33333333E-02
                      -2.50000000E-01  5.00000000E-01  0.00000000E+00
                      -1.66666667E-01  5.00000000E-01  8.33333333E-02
                      -8.33333333E-02  5.00000000E-01  1.66666667E-01
                      -3.33333333E-01 -4.16666667E-01  0.00000000E+00
                      -2.50000000E-01 -4.16666667E-01  8.33333333E-02
                      -1.66666667E-01 -4.16666667E-01  1.66666667E-01
                      -8.33333333E-02 -4.16666667E-01  2.50000000E-01
                      -4.16666667E-01 -3.33333333E-01  0.00000000E+00
                      -3.33333333E-01 -3.33333333E-01  8.33333333E-02
                      -2.50000000E-01 -3.33333333E-01  1.66666667E-01
                      -1.66666667E-01 -3.33333333E-01  2.50000000E-01
                      -8.33333333E-02 -3.33333333E-01  3.33333333E-01
                       5.00000000E-01 -2.50000000E-01  0.00000000E+00
                       outvar_i_n : Printing only first  50 k-points.
           kptopt11         1
           kptopt12         2
           kptopt13         2
           kptopt14         2
           kptopt21         1
           kptopt22         2
           kptopt23         2
           kptopt24         2
           kptopt31         1
           kptopt32         2
           kptopt33         2
           kptopt34         2
         kptrlatt        6   -6    6     -6    6    6     -6   -6    6
          kptrlen      6.31800000E+01
P           mkmem11         7
P           mkmem12       108
P           mkmem13       108
P           mkmem14       108
P           mkmem21        32
P           mkmem22       108
P           mkmem23       108
P           mkmem24       108
P           mkmem31        32
P           mkmem32       108
P           mkmem33       108
P           mkmem34       108
P          mkqmem11         7
P          mkqmem12       108
P          mkqmem13       108
P          mkqmem14       108
P          mkqmem21        32
P          mkqmem22       108
P          mkqmem23       108
P          mkqmem24       108
P          mkqmem31        32
P          mkqmem32       108
P          mkqmem33       108
P          mkqmem34       108
P          mk1mem11         7
P          mk1mem12       108
P          mk1mem13       108
P          mk1mem14       108
P          mk1mem21        32
P          mk1mem22       108
P          mk1mem23       108
P          mk1mem24       108
P          mk1mem31        32
P          mk1mem32       108
P          mk1mem33       108
P          mk1mem34       108
            natom           2
            nband11         5
            nband12         4
            nband13         4
            nband14         4
            nband21         5
            nband22         4
            nband23         4
            nband24         4
            nband31         5
            nband32         4
            nband33         4
            nband34         4
           ndtset          12
            ngfft          16      16      16
             nkpt11        28
             nkpt12       432
             nkpt13       432
             nkpt14       432
             nkpt21       126
             nkpt22       432
             nkpt23       432
             nkpt24       432
             nkpt31       126
             nkpt32       432
             nkpt33       432
             nkpt34       432
            nstep         100
             nsym11        24
             nsym12        24
             nsym13        24
             nsym14        24
             nsym21         4
             nsym22         4
             nsym23         4
             nsym24         4
             nsym31         4
             nsym32         4
             nsym33         4
             nsym34         4
           ntypat           2
              occ11    2.000000  2.000000  2.000000  2.000000  0.000000
              occ13    2.000000  2.000000  2.000000  2.000000
              occ14    2.000000  2.000000  2.000000  2.000000
              occ21    2.000000  2.000000  2.000000  2.000000  0.000000
              occ23    2.000000  2.000000  2.000000  2.000000
              occ24    2.000000  2.000000  2.000000  2.000000
              occ31    2.000000  2.000000  2.000000  2.000000  0.000000
              occ33    2.000000  2.000000  2.000000  2.000000
              occ34    2.000000  2.000000  2.000000  2.000000
        optdriver11         0
        optdriver12         0
        optdriver13         1
        optdriver14         1
        optdriver21         0
        optdriver22         0
        optdriver23         1
        optdriver24         1
        optdriver31         0
        optdriver32         0
        optdriver33         1
        optdriver34         1
            prtwf11         1
            prtwf12         1
            prtwf13         1
            prtwf14         0
            prtwf21         1
            prtwf22         1
            prtwf23         1
            prtwf24         0
            prtwf31         1
            prtwf32         1
            prtwf33         1
            prtwf34         0
            rfdir11         0       0       0
            rfdir12         0       0       0
            rfdir13         1       1       1
            rfdir14         1       1       1
            rfdir21         0       0       0
            rfdir22         0       0       0
            rfdir23         1       1       1
            rfdir24         1       1       1
            rfdir31         0       0       0
            rfdir32         0       0       0
            rfdir33         1       1       1
            rfdir34         1       1       1
           rfelfd11         0
           rfelfd12         0
           rfelfd13         2
           rfelfd14         3
           rfelfd21         0
           rfelfd22         0
           rfelfd23         2
           rfelfd24         3
           rfelfd31         0
           rfelfd32         0
           rfelfd33         2
           rfelfd34         3
            rprim      0.0000000000E+00  5.0000000000E-01  5.0000000000E-01
                       5.0000000000E-01  0.0000000000E+00  5.0000000000E-01
                       5.0000000000E-01  5.0000000000E-01  0.0000000000E+00
           shiftk      5.00000000E-01  5.00000000E-01  5.00000000E-01
          spgroup11       216
          spgroup12       216
          spgroup13       216
          spgroup14       216
          spgroup21        44
          spgroup22        44
          spgroup23        44
          spgroup24        44
          spgroup31        44
          spgroup32        44
          spgroup33        44
          spgroup34        44
           symafm11      1    1    1    1    1    1    1    1    1    1
                         1    1    1    1    1    1    1    1    1    1
                         1    1    1    1
           symafm12      1    1    1    1    1    1    1    1    1    1
                         1    1    1    1    1    1    1    1    1    1
                         1    1    1    1
           symafm13      1    1    1    1    1    1    1    1    1    1
                         1    1    1    1    1    1    1    1    1    1
                         1    1    1    1
           symafm14      1    1    1    1    1    1    1    1    1    1
                         1    1    1    1    1    1    1    1    1    1
                         1    1    1    1
           symafm21      1    1    1    1
           symafm22      1    1    1    1
           symafm23      1    1    1    1
           symafm24      1    1    1    1
           symafm31      1    1    1    1
           symafm32      1    1    1    1
           symafm33      1    1    1    1
           symafm34      1    1    1    1
           symrel11    1  0  0   0  1  0   0  0  1       0 -1  1   0 -1  0   1 -1  0
                      -1  0  0  -1  0  1  -1  1  0       0  1 -1   1  0 -1   0  0 -1
                      -1  0  0  -1  1  0  -1  0  1       0 -1  1   1 -1  0   0 -1  0
                       1  0  0   0  0  1   0  1  0       0  1 -1   0  0 -1   1  0 -1
                      -1  0  1  -1  1  0  -1  0  0       0 -1  0   1 -1  0   0 -1  1
                       1  0 -1   0  0 -1   0  1 -1       0  1  0   0  0  1   1  0  0
                       1  0 -1   0  1 -1   0  0 -1       0 -1  0   0 -1  1   1 -1  0
                      -1  0  1  -1  0  0  -1  1  0       0  1  0   1  0  0   0  0  1
                       0  0 -1   0  1 -1   1  0 -1       1 -1  0   0 -1  1   0 -1  0
                       0  0  1   1  0  0   0  1  0      -1  1  0  -1  0  0  -1  0  1
                       0  0  1   0  1  0   1  0  0       1 -1  0   0 -1  0   0 -1  1
                       0  0 -1   1  0 -1   0  1 -1      -1  1  0  -1  0  1  -1  0  0
           symrel12    1  0  0   0  1  0   0  0  1       0 -1  1   0 -1  0   1 -1  0
                      -1  0  0  -1  0  1  -1  1  0       0  1 -1   1  0 -1   0  0 -1
                      -1  0  0  -1  1  0  -1  0  1       0 -1  1   1 -1  0   0 -1  0
                       1  0  0   0  0  1   0  1  0       0  1 -1   0  0 -1   1  0 -1
                      -1  0  1  -1  1  0  -1  0  0       0 -1  0   1 -1  0   0 -1  1
                       1  0 -1   0  0 -1   0  1 -1       0  1  0   0  0  1   1  0  0
                       1  0 -1   0  1 -1   0  0 -1       0 -1  0   0 -1  1   1 -1  0
                      -1  0  1  -1  0  0  -1  1  0       0  1  0   1  0  0   0  0  1
                       0  0 -1   0  1 -1   1  0 -1       1 -1  0   0 -1  1   0 -1  0
                       0  0  1   1  0  0   0  1  0      -1  1  0  -1  0  0  -1  0  1
                       0  0  1   0  1  0   1  0  0       1 -1  0   0 -1  0   0 -1  1
                       0  0 -1   1  0 -1   0  1 -1      -1  1  0  -1  0  1  -1  0  0
           symrel13    1  0  0   0  1  0   0  0  1       0 -1  1   0 -1  0   1 -1  0
                      -1  0  0  -1  0  1  -1  1  0       0  1 -1   1  0 -1   0  0 -1
                      -1  0  0  -1  1  0  -1  0  1       0 -1  1   1 -1  0   0 -1  0
                       1  0  0   0  0  1   0  1  0       0  1 -1   0  0 -1   1  0 -1
                      -1  0  1  -1  1  0  -1  0  0       0 -1  0   1 -1  0   0 -1  1
                       1  0 -1   0  0 -1   0  1 -1       0  1  0   0  0  1   1  0  0
                       1  0 -1   0  1 -1   0  0 -1       0 -1  0   0 -1  1   1 -1  0
                      -1  0  1  -1  0  0  -1  1  0       0  1  0   1  0  0   0  0  1
                       0  0 -1   0  1 -1   1  0 -1       1 -1  0   0 -1  1   0 -1  0
                       0  0  1   1  0  0   0  1  0      -1  1  0  -1  0  0  -1  0  1
                       0  0  1   0  1  0   1  0  0       1 -1  0   0 -1  0   0 -1  1
                       0  0 -1   1  0 -1   0  1 -1      -1  1  0  -1  0  1  -1  0  0
           symrel14    1  0  0   0  1  0   0  0  1       0 -1  1   0 -1  0   1 -1  0
                      -1  0  0  -1  0  1  -1  1  0       0  1 -1   1  0 -1   0  0 -1
                      -1  0  0  -1  1  0  -1  0  1       0 -1  1   1 -1  0   0 -1  0
                       1  0  0   0  0  1   0  1  0       0  1 -1   0  0 -1   1  0 -1
                      -1  0  1  -1  1  0  -1  0  0       0 -1  0   1 -1  0   0 -1  1
                       1  0 -1   0  0 -1   0  1 -1       0  1  0   0  0  1   1  0  0
                       1  0 -1   0  1 -1   0  0 -1       0 -1  0   0 -1  1   1 -1  0
                      -1  0  1  -1  0  0  -1  1  0       0  1  0   1  0  0   0  0  1
                       0  0 -1   0  1 -1   1  0 -1       1 -1  0   0 -1  1   0 -1  0
                       0  0  1   1  0  0   0  1  0      -1  1  0  -1  0  0  -1  0  1
                       0  0  1   0  1  0   1  0  0       1 -1  0   0 -1  0   0 -1  1
                       0  0 -1   1  0 -1   0  1 -1      -1  1  0  -1  0  1  -1  0  0
           symrel21    1  0  0   0  1  0   0  0  1      -1  0  0  -1  0  1  -1  1  0
                      -1  0  0  -1  1  0  -1  0  1       1  0  0   0  0  1   0  1  0
           symrel22    1  0  0   0  1  0   0  0  1      -1  0  0  -1  0  1  -1  1  0
                      -1  0  0  -1  1  0  -1  0  1       1  0  0   0  0  1   0  1  0
           symrel23    1  0  0   0  1  0   0  0  1      -1  0  0  -1  0  1  -1  1  0
                      -1  0  0  -1  1  0  -1  0  1       1  0  0   0  0  1   0  1  0
           symrel24    1  0  0   0  1  0   0  0  1      -1  0  0  -1  0  1  -1  1  0
                      -1  0  0  -1  1  0  -1  0  1       1  0  0   0  0  1   0  1  0
           symrel31    1  0  0   0  1  0   0  0  1      -1  0  0  -1  0  1  -1  1  0
                      -1  0  0  -1  1  0  -1  0  1       1  0  0   0  0  1   0  1  0
           symrel32    1  0  0   0  1  0   0  0  1      -1  0  0  -1  0  1  -1  1  0
                      -1  0  0  -1  1  0  -1  0  1       1  0  0   0  0  1   0  1  0
           symrel33    1  0  0   0  1  0   0  0  1      -1  0  0  -1  0  1  -1  1  0
                      -1  0  0  -1  1  0  -1  0  1       1  0  0   0  0  1   0  1  0
           symrel34    1  0  0   0  1  0   0  0  1      -1  0  0  -1  0  1  -1  1  0
                      -1  0  0  -1  1  0  -1  0  1       1  0  0   0  0  1   0  1  0
            tnons11    0.0000000  0.0000000  0.0000000     0.0000000  0.0000000  0.0000000
                       0.0000000  0.0000000  0.0000000     0.0000000  0.0000000  0.0000000
                       0.0000000  0.0000000  0.0000000     0.0000000  0.0000000  0.0000000
                       0.0000000  0.0000000  0.0000000     0.0000000  0.0000000  0.0000000
                       0.0000000  0.0000000  0.0000000     0.0000000  0.0000000  0.0000000
                       0.0000000  0.0000000  0.0000000     0.0000000  0.0000000  0.0000000
                       0.0000000  0.0000000  0.0000000     0.0000000  0.0000000  0.0000000
                       0.0000000  0.0000000  0.0000000     0.0000000  0.0000000  0.0000000
                       0.0000000  0.0000000  0.0000000     0.0000000  0.0000000  0.0000000
                       0.0000000  0.0000000  0.0000000     0.0000000  0.0000000  0.0000000
                       0.0000000  0.0000000  0.0000000     0.0000000  0.0000000  0.0000000
                       0.0000000  0.0000000  0.0000000     0.0000000  0.0000000  0.0000000
            tnons12    0.0000000  0.0000000  0.0000000     0.0000000  0.0000000  0.0000000
                       0.0000000  0.0000000  0.0000000     0.0000000  0.0000000  0.0000000
                       0.0000000  0.0000000  0.0000000     0.0000000  0.0000000  0.0000000
                       0.0000000  0.0000000  0.0000000     0.0000000  0.0000000  0.0000000
                       0.0000000  0.0000000  0.0000000     0.0000000  0.0000000  0.0000000
                       0.0000000  0.0000000  0.0000000     0.0000000  0.0000000  0.0000000
                       0.0000000  0.0000000  0.0000000     0.0000000  0.0000000  0.0000000
                       0.0000000  0.0000000  0.0000000     0.0000000  0.0000000  0.0000000
                       0.0000000  0.0000000  0.0000000     0.0000000  0.0000000  0.0000000
                       0.0000000  0.0000000  0.0000000     0.0000000  0.0000000  0.0000000
                       0.0000000  0.0000000  0.0000000     0.0000000  0.0000000  0.0000000
                       0.0000000  0.0000000  0.0000000     0.0000000  0.0000000  0.0000000
            tnons13    0.0000000  0.0000000  0.0000000     0.0000000  0.0000000  0.0000000
                       0.0000000  0.0000000  0.0000000     0.0000000  0.0000000  0.0000000
                       0.0000000  0.0000000  0.0000000     0.0000000  0.0000000  0.0000000
                       0.0000000  0.0000000  0.0000000     0.0000000  0.0000000  0.0000000
                       0.0000000  0.0000000  0.0000000     0.0000000  0.0000000  0.0000000
                       0.0000000  0.0000000  0.0000000     0.0000000  0.0000000  0.0000000
                       0.0000000  0.0000000  0.0000000     0.0000000  0.0000000  0.0000000
                       0.0000000  0.0000000  0.0000000     0.0000000  0.0000000  0.0000000
                       0.0000000  0.0000000  0.0000000     0.0000000  0.0000000  0.0000000
                       0.0000000  0.0000000  0.0000000     0.0000000  0.0000000  0.0000000
                       0.0000000  0.0000000  0.0000000     0.0000000  0.0000000  0.0000000
                       0.0000000  0.0000000  0.0000000     0.0000000  0.0000000  0.0000000
            tnons14    0.0000000  0.0000000  0.0000000     0.0000000  0.0000000  0.0000000
                       0.0000000  0.0000000  0.0000000     0.0000000  0.0000000  0.0000000
                       0.0000000  0.0000000  0.0000000     0.0000000  0.0000000  0.0000000
                       0.0000000  0.0000000  0.0000000     0.0000000  0.0000000  0.0000000
                       0.0000000  0.0000000  0.0000000     0.0000000  0.0000000  0.0000000
                       0.0000000  0.0000000  0.0000000     0.0000000  0.0000000  0.0000000
                       0.0000000  0.0000000  0.0000000     0.0000000  0.0000000  0.0000000
                       0.0000000  0.0000000  0.0000000     0.0000000  0.0000000  0.0000000
                       0.0000000  0.0000000  0.0000000     0.0000000  0.0000000  0.0000000
                       0.0000000  0.0000000  0.0000000     0.0000000  0.0000000  0.0000000
                       0.0000000  0.0000000  0.0000000     0.0000000  0.0000000  0.0000000
                       0.0000000  0.0000000  0.0000000     0.0000000  0.0000000  0.0000000
            tnons21    0.0000000  0.0000000  0.0000000     0.0000000  0.0000000  0.0000000
                       0.0000000  0.0000000  0.0000000     0.0000000  0.0000000  0.0000000
            tnons22    0.0000000  0.0000000  0.0000000     0.0000000  0.0000000  0.0000000
                       0.0000000  0.0000000  0.0000000     0.0000000  0.0000000  0.0000000
            tnons23    0.0000000  0.0000000  0.0000000     0.0000000  0.0000000  0.0000000
                       0.0000000  0.0000000  0.0000000     0.0000000  0.0000000  0.0000000
            tnons24    0.0000000  0.0000000  0.0000000     0.0000000  0.0000000  0.0000000
                       0.0000000  0.0000000  0.0000000     0.0000000  0.0000000  0.0000000
            tnons31    0.0000000  0.0000000  0.0000000     0.0000000  0.0000000  0.0000000
                       0.0000000  0.0000000  0.0000000     0.0000000  0.0000000  0.0000000
            tnons32    0.0000000  0.0000000  0.0000000     0.0000000  0.0000000  0.0000000
                       0.0000000  0.0000000  0.0000000     0.0000000  0.0000000  0.0000000
            tnons33    0.0000000  0.0000000  0.0000000     0.0000000  0.0000000  0.0000000
                       0.0000000  0.0000000  0.0000000     0.0000000  0.0000000  0.0000000
            tnons34    0.0000000  0.0000000  0.0000000     0.0000000  0.0000000  0.0000000
                       0.0000000  0.0000000  0.0000000     0.0000000  0.0000000  0.0000000
           toldfe11    1.00000000E-12 Hartree
           toldfe12    0.00000000E+00 Hartree
           toldfe13    0.00000000E+00 Hartree
           toldfe14    0.00000000E+00 Hartree
           toldfe21    1.00000000E-12 Hartree
           toldfe22    0.00000000E+00 Hartree
           toldfe23    0.00000000E+00 Hartree
           toldfe24    0.00000000E+00 Hartree
           toldfe31    1.00000000E-12 Hartree
           toldfe32    0.00000000E+00 Hartree
           toldfe33    0.00000000E+00 Hartree
           toldfe34    0.00000000E+00 Hartree
           tolvrs11    0.00000000E+00
           tolvrs12    0.00000000E+00
           tolvrs13    0.00000000E+00
           tolvrs14    1.00000000E-12
           tolvrs21    0.00000000E+00
           tolvrs22    0.00000000E+00
           tolvrs23    0.00000000E+00
           tolvrs24    1.00000000E-12
           tolvrs31    0.00000000E+00
           tolvrs32    0.00000000E+00
           tolvrs33    0.00000000E+00
           tolvrs34    1.00000000E-12
           tolwfr11    0.00000000E+00
           tolwfr12    1.00000000E-22
           tolwfr13    1.00000000E-22
           tolwfr14    0.00000000E+00
           tolwfr21    0.00000000E+00
           tolwfr22    1.00000000E-22
           tolwfr23    1.00000000E-22
           tolwfr24    0.00000000E+00
           tolwfr31    0.00000000E+00
           tolwfr32    1.00000000E-22
           tolwfr33    1.00000000E-22
           tolwfr34    0.00000000E+00
            typat      1  2
              wtk11      0.02778    0.02778    0.02778    0.05556    0.02778    0.02778
                         0.05556    0.02778    0.05556    0.05556    0.02778    0.02778
                         0.02778    0.05556    0.02778    0.05556    0.05556    0.05556
                         0.02778    0.02778    0.02778    0.02778    0.02778    0.05556
                         0.05556    0.00926    0.00926    0.00926
              wtk12      0.00231    0.00231    0.00231    0.00231    0.00231    0.00231
                         0.00231    0.00231    0.00231    0.00231    0.00231    0.00231
                         0.00231    0.00231    0.00231    0.00231    0.00231    0.00231
                         0.00231    0.00231    0.00231    0.00231    0.00231    0.00231
                         0.00231    0.00231    0.00231    0.00231    0.00231    0.00231
                         0.00231    0.00231    0.00231    0.00231    0.00231    0.00231
                         0.00231    0.00231    0.00231    0.00231    0.00231    0.00231
                         0.00231    0.00231    0.00231    0.00231    0.00231    0.00231
                         0.00231    0.00231
              wtk13      0.00231    0.00231    0.00231    0.00231    0.00231    0.00231
                         0.00231    0.00231    0.00231    0.00231    0.00231    0.00231
                         0.00231    0.00231    0.00231    0.00231    0.00231    0.00231
                         0.00231    0.00231    0.00231    0.00231    0.00231    0.00231
                         0.00231    0.00231    0.00231    0.00231    0.00231    0.00231
                         0.00231    0.00231    0.00231    0.00231    0.00231    0.00231
                         0.00231    0.00231    0.00231    0.00231    0.00231    0.00231
                         0.00231    0.00231    0.00231    0.00231    0.00231    0.00231
                         0.00231    0.00231
              wtk14      0.00231    0.00231    0.00231    0.00231    0.00231    0.00231
                         0.00231    0.00231    0.00231    0.00231    0.00231    0.00231
                         0.00231    0.00231    0.00231    0.00231    0.00231    0.00231
                         0.00231    0.00231    0.00231    0.00231    0.00231    0.00231
                         0.00231    0.00231    0.00231    0.00231    0.00231    0.00231
                         0.00231    0.00231    0.00231    0.00231    0.00231    0.00231
                         0.00231    0.00231    0.00231    0.00231    0.00231    0.00231
                         0.00231    0.00231    0.00231    0.00231    0.00231    0.00231
                         0.00231    0.00231
              wtk21      0.00926    0.00926    0.00926    0.00926    0.00926    0.00926
                         0.00926    0.00926    0.00926    0.00926    0.00926    0.00926
[...]
           tolvrs23    0.00000000E+00
           tolvrs24    1.00000000E-12
           tolvrs31    0.00000000E+00
           tolvrs32    0.00000000E+00
           tolvrs33    0.00000000E+00
           tolvrs34    1.00000000E-12
           tolwfr11    0.00000000E+00
           tolwfr12    1.00000000E-22
           tolwfr13    1.00000000E-22
           tolwfr14    0.00000000E+00
           tolwfr21    0.00000000E+00
           tolwfr22    1.00000000E-22
           tolwfr23    1.00000000E-22
           tolwfr24    0.00000000E+00
           tolwfr31    0.00000000E+00
           tolwfr32    1.00000000E-22
           tolwfr33    1.00000000E-22
           tolwfr34    0.00000000E+00
            typat      1  2
              wtk11      0.02778    0.02778    0.02778    0.05556    0.02778    0.02778
                         0.05556    0.02778    0.05556    0.05556    0.02778    0.02778
                         0.02778    0.05556    0.02778    0.05556    0.05556    0.05556
                         0.02778    0.02778    0.02778    0.02778    0.02778    0.05556
                         0.05556    0.00926    0.00926    0.00926
              wtk12      0.00231    0.00231    0.00231    0.00231    0.00231    0.00231
                         0.00231    0.00231    0.00231    0.00231    0.00231    0.00231
                         0.00231    0.00231    0.00231    0.00231    0.00231    0.00231
                         0.00231    0.00231    0.00231    0.00231    0.00231    0.00231
                         0.00231    0.00231    0.00231    0.00231    0.00231    0.00231
                         0.00231    0.00231    0.00231    0.00231    0.00231    0.00231
                         0.00231    0.00231    0.00231    0.00231    0.00231    0.00231
                         0.00231    0.00231    0.00231    0.00231    0.00231    0.00231
                         0.00231    0.00231
              wtk13      0.00231    0.00231    0.00231    0.00231    0.00231    0.00231
                         0.00231    0.00231    0.00231    0.00231    0.00231    0.00231
                         0.00231    0.00231    0.00231    0.00231    0.00231    0.00231
                         0.00231    0.00231    0.00231    0.00231    0.00231    0.00231
                         0.00231    0.00231    0.00231    0.00231    0.00231    0.00231
                         0.00231    0.00231    0.00231    0.00231    0.00231    0.00231
                         0.00231    0.00231    0.00231    0.00231    0.00231    0.00231
                         0.00231    0.00231    0.00231    0.00231    0.00231    0.00231
                         0.00231    0.00231
              wtk14      0.00231    0.00231    0.00231    0.00231    0.00231    0.00231
                         0.00231    0.00231    0.00231    0.00231    0.00231    0.00231
                         0.00231    0.00231    0.00231    0.00231    0.00231    0.00231
                         0.00231    0.00231    0.00231    0.00231    0.00231    0.00231
                         0.00231    0.00231    0.00231    0.00231    0.00231    0.00231
                         0.00231    0.00231    0.00231    0.00231    0.00231    0.00231
                         0.00231    0.00231    0.00231    0.00231    0.00231    0.00231
                         0.00231    0.00231    0.00231    0.00231    0.00231    0.00231
                         0.00231    0.00231
              wtk21      0.00926    0.00926    0.00926    0.00926    0.00926    0.00926
                         0.00926    0.00926    0.00926    0.00926    0.00926    0.00926
                         0.00926    0.00926    0.00926    0.00926    0.00926    0.00926
                         0.00926    0.00926    0.00926    0.00926    0.00926    0.00926
                         0.00926    0.00926    0.00926    0.00926    0.00926    0.00926
                         0.00926    0.00926    0.00926    0.00926    0.00926    0.00926
                         0.00926    0.00926    0.00926    0.00926    0.00926    0.00926
                         0.00926    0.00926    0.00926    0.00926    0.00926    0.00926
                         0.00926    0.00926
              wtk22      0.00231    0.00231    0.00231    0.00231    0.00231    0.00231
                         0.00231    0.00231    0.00231    0.00231    0.00231    0.00231
                         0.00231    0.00231    0.00231    0.00231    0.00231    0.00231
                         0.00231    0.00231    0.00231    0.00231    0.00231    0.00231
                         0.00231    0.00231    0.00231    0.00231    0.00231    0.00231
                         0.00231    0.00231    0.00231    0.00231    0.00231    0.00231
                         0.00231    0.00231    0.00231    0.00231    0.00231    0.00231
                         0.00231    0.00231    0.00231    0.00231    0.00231    0.00231
                         0.00231    0.00231
              wtk23      0.00231    0.00231    0.00231    0.00231    0.00231    0.00231
                         0.00231    0.00231    0.00231    0.00231    0.00231    0.00231
                         0.00231    0.00231    0.00231    0.00231    0.00231    0.00231
                         0.00231    0.00231    0.00231    0.00231    0.00231    0.00231
                         0.00231    0.00231    0.00231    0.00231    0.00231    0.00231
                         0.00231    0.00231    0.00231    0.00231    0.00231    0.00231
                         0.00231    0.00231    0.00231    0.00231    0.00231    0.00231
                         0.00231    0.00231    0.00231    0.00231    0.00231    0.00231
                         0.00231    0.00231
              wtk24      0.00231    0.00231    0.00231    0.00231    0.00231    0.00231
                         0.00231    0.00231    0.00231    0.00231    0.00231    0.00231
                         0.00231    0.00231    0.00231    0.00231    0.00231    0.00231
                         0.00231    0.00231    0.00231    0.00231    0.00231    0.00231
                         0.00231    0.00231    0.00231    0.00231    0.00231    0.00231
                         0.00231    0.00231    0.00231    0.00231    0.00231    0.00231
                         0.00231    0.00231    0.00231    0.00231    0.00231    0.00231
                         0.00231    0.00231    0.00231    0.00231    0.00231    0.00231
                         0.00231    0.00231
              wtk31      0.00926    0.00926    0.00926    0.00926    0.00926    0.00926
                         0.00926    0.00926    0.00926    0.00926    0.00926    0.00926
                         0.00926    0.00926    0.00926    0.00926    0.00926    0.00926
                         0.00926    0.00926    0.00926    0.00926    0.00926    0.00926
                         0.00926    0.00926    0.00926    0.00926    0.00926    0.00926
                         0.00926    0.00926    0.00926    0.00926    0.00926    0.00926
                         0.00926    0.00926    0.00926    0.00926    0.00926    0.00926
                         0.00926    0.00926    0.00926    0.00926    0.00926    0.00926
                         0.00926    0.00926
              wtk32      0.00231    0.00231    0.00231    0.00231    0.00231    0.00231
                         0.00231    0.00231    0.00231    0.00231    0.00231    0.00231
                         0.00231    0.00231    0.00231    0.00231    0.00231    0.00231
                         0.00231    0.00231    0.00231    0.00231    0.00231    0.00231
                         0.00231    0.00231    0.00231    0.00231    0.00231    0.00231
                         0.00231    0.00231    0.00231    0.00231    0.00231    0.00231
                         0.00231    0.00231    0.00231    0.00231    0.00231    0.00231
                         0.00231    0.00231    0.00231    0.00231    0.00231    0.00231
                         0.00231    0.00231
              wtk33      0.00231    0.00231    0.00231    0.00231    0.00231    0.00231
                         0.00231    0.00231    0.00231    0.00231    0.00231    0.00231
                         0.00231    0.00231    0.00231    0.00231    0.00231    0.00231
                         0.00231    0.00231    0.00231    0.00231    0.00231    0.00231
                         0.00231    0.00231    0.00231    0.00231    0.00231    0.00231
                         0.00231    0.00231    0.00231    0.00231    0.00231    0.00231
                         0.00231    0.00231    0.00231    0.00231    0.00231    0.00231
                         0.00231    0.00231    0.00231    0.00231    0.00231    0.00231
                         0.00231    0.00231
              wtk34      0.00231    0.00231    0.00231    0.00231    0.00231    0.00231
                         0.00231    0.00231    0.00231    0.00231    0.00231    0.00231
                         0.00231    0.00231    0.00231    0.00231    0.00231    0.00231
                         0.00231    0.00231    0.00231    0.00231    0.00231    0.00231
                         0.00231    0.00231    0.00231    0.00231    0.00231    0.00231
                         0.00231    0.00231    0.00231    0.00231    0.00231    0.00231
                         0.00231    0.00231    0.00231    0.00231    0.00231    0.00231
                         0.00231    0.00231    0.00231    0.00231    0.00231    0.00231
                         0.00231    0.00231
                       outvars : Printing only first  50 k-points.
           xangst11    0.0000000000E+00  0.0000000000E+00  0.0000000000E+00
                       1.3930590016E+00  1.3930590016E+00  1.3930590016E+00
           xangst12    0.0000000000E+00  0.0000000000E+00  0.0000000000E+00
                       1.3930590016E+00  1.3930590016E+00  1.3930590016E+00
           xangst13    0.0000000000E+00  0.0000000000E+00  0.0000000000E+00
                       1.3930590016E+00  1.3930590016E+00  1.3930590016E+00
           xangst14    0.0000000000E+00  0.0000000000E+00  0.0000000000E+00
                       1.3930590016E+00  1.3930590016E+00  1.3930590016E+00
           xangst21    5.2917720859E-03  0.0000000000E+00  0.0000000000E+00
                       1.3930590016E+00  1.3930590016E+00  1.3930590016E+00
           xangst22    5.2917720859E-03  0.0000000000E+00  0.0000000000E+00
                       1.3930590016E+00  1.3930590016E+00  1.3930590016E+00
           xangst23    5.2917720859E-03  0.0000000000E+00  0.0000000000E+00
                       1.3930590016E+00  1.3930590016E+00  1.3930590016E+00
           xangst24    5.2917720859E-03  0.0000000000E+00  0.0000000000E+00
                       1.3930590016E+00  1.3930590016E+00  1.3930590016E+00
           xangst31   -5.2917720859E-03  0.0000000000E+00  0.0000000000E+00
                       1.3930590016E+00  1.3930590016E+00  1.3930590016E+00
           xangst32   -5.2917720859E-03  0.0000000000E+00  0.0000000000E+00
                       1.3930590016E+00  1.3930590016E+00  1.3930590016E+00
           xangst33   -5.2917720859E-03  0.0000000000E+00  0.0000000000E+00
                       1.3930590016E+00  1.3930590016E+00  1.3930590016E+00
           xangst34   -5.2917720859E-03  0.0000000000E+00  0.0000000000E+00
                       1.3930590016E+00  1.3930590016E+00  1.3930590016E+00
            xcart11    0.0000000000E+00  0.0000000000E+00  0.0000000000E+00
                       2.6325000000E+00  2.6325000000E+00  2.6325000000E+00
            xcart12    0.0000000000E+00  0.0000000000E+00  0.0000000000E+00
                       2.6325000000E+00  2.6325000000E+00  2.6325000000E+00
            xcart13    0.0000000000E+00  0.0000000000E+00  0.0000000000E+00
                       2.6325000000E+00  2.6325000000E+00  2.6325000000E+00
            xcart14    0.0000000000E+00  0.0000000000E+00  0.0000000000E+00
                       2.6325000000E+00  2.6325000000E+00  2.6325000000E+00
            xcart21    1.0000000000E-02  0.0000000000E+00  0.0000000000E+00
                       2.6325000000E+00  2.6325000000E+00  2.6325000000E+00
            xcart22    1.0000000000E-02  0.0000000000E+00  0.0000000000E+00
                       2.6325000000E+00  2.6325000000E+00  2.6325000000E+00
            xcart23    1.0000000000E-02  0.0000000000E+00  0.0000000000E+00
                       2.6325000000E+00  2.6325000000E+00  2.6325000000E+00
            xcart24    1.0000000000E-02  0.0000000000E+00  0.0000000000E+00
                       2.6325000000E+00  2.6325000000E+00  2.6325000000E+00
            xcart31   -1.0000000000E-02  0.0000000000E+00  0.0000000000E+00
                       2.6325000000E+00  2.6325000000E+00  2.6325000000E+00
            xcart32   -1.0000000000E-02  0.0000000000E+00  0.0000000000E+00
                       2.6325000000E+00  2.6325000000E+00  2.6325000000E+00
            xcart33   -1.0000000000E-02  0.0000000000E+00  0.0000000000E+00
                       2.6325000000E+00  2.6325000000E+00  2.6325000000E+00
            xcart34   -1.0000000000E-02  0.0000000000E+00  0.0000000000E+00
                       2.6325000000E+00  2.6325000000E+00  2.6325000000E+00
             xred11    0.0000000000E+00  0.0000000000E+00  0.0000000000E+00
                       2.5000000000E-01  2.5000000000E-01  2.5000000000E-01
             xred12    0.0000000000E+00  0.0000000000E+00  0.0000000000E+00
                       2.5000000000E-01  2.5000000000E-01  2.5000000000E-01
             xred13    0.0000000000E+00  0.0000000000E+00  0.0000000000E+00
                       2.5000000000E-01  2.5000000000E-01  2.5000000000E-01
             xred14    0.0000000000E+00  0.0000000000E+00  0.0000000000E+00
                       2.5000000000E-01  2.5000000000E-01  2.5000000000E-01
             xred21   -9.4966761633E-04  9.4966761633E-04  9.4966761633E-04
                       2.5000000000E-01  2.5000000000E-01  2.5000000000E-01
             xred22   -9.4966761633E-04  9.4966761633E-04  9.4966761633E-04
                       2.5000000000E-01  2.5000000000E-01  2.5000000000E-01
             xred23   -9.4966761633E-04  9.4966761633E-04  9.4966761633E-04
                       2.5000000000E-01  2.5000000000E-01  2.5000000000E-01
             xred24   -9.4966761633E-04  9.4966761633E-04  9.4966761633E-04
                       2.5000000000E-01  2.5000000000E-01  2.5000000000E-01
             xred31    9.4966761633E-04 -9.4966761633E-04 -9.4966761633E-04
                       2.5000000000E-01  2.5000000000E-01  2.5000000000E-01
             xred32    9.4966761633E-04 -9.4966761633E-04 -9.4966761633E-04
                       2.5000000000E-01  2.5000000000E-01  2.5000000000E-01
             xred33    9.4966761633E-04 -9.4966761633E-04 -9.4966761633E-04
                       2.5000000000E-01  2.5000000000E-01  2.5000000000E-01
             xred34    9.4966761633E-04 -9.4966761633E-04 -9.4966761633E-04
                       2.5000000000E-01  2.5000000000E-01  2.5000000000E-01
            znucl       13.00000   33.00000

================================================================================


- Timing analysis has been suppressed with timopt=0



================================================================================

 Suggested references for the acknowledgment of ABINIT usage.

 The users of ABINIT have little formal obligations with respect to the ABINIT group
 (those specified in the GNU General Public License, http://www.gnu.org/copyleft/gpl.txt).
 However, it is common practice in the scientific literature,
 to acknowledge the efforts of people that have made the research possible.
 In this spirit, please find below suggested citations of work written by ABINIT developers,
 corresponding to implementations inside of ABINIT that you have used in the present run.
 Note also that it will be of great value to readers of publications presenting these results,
 to read papers enabling them to understand the theoretical formalism and details
 of the ABINIT implementation.
 For information on why they are suggested, see also https://docs.abinit.org/theory/acknowledgments.
-
- [1] Recent developments in the ABINIT software package.
- Computer Phys. Comm. 205, 106 (2016).
- X.Gonze, F.Jollet, F.Abreu Araujo, D.Adams, B.Amadon, T.Applencourt,
- C.Audouze, J.-M.Beuken, J.Bieder, A.Bokhanchuk, E.Bousquet, F.Bruneval
- D.Caliste, M.Cote, F.Dahm, F.Da Pieve, M.Delaveau, M.Di Gennaro,
- B.Dorado, C.Espejo, G.Geneste, L.Genovese, A.Gerossier, M.Giantomassi,
- Y.Gillet, D.R.Hamann, L.He, G.Jomard, J.Laflamme Janssen, S.Le Roux,
- A.Levitt, A.Lherbier, F.Liu, I.Lukacevic, A.Martin, C.Martins,
- M.J.T.Oliveira, S.Ponce, Y.Pouillon, T.Rangel, G.-M.Rignanese,
- A.H.Romero, B.Rousseau, O.Rubel, A.A.Shukri, M.Stankovski, M.Torrent,
- M.J.Van Setten, B.Van Troeye, M.J.Verstraete, D.Waroquier, J.Wiktor,
- B.Xu, A.Zhou, J.W.Zwanziger.
- Comment : the fourth generic paper describing the ABINIT project.
- Note that a version of this paper, that is not formatted for Computer Phys. Comm. 
- is available at https://www.abinit.org/about/ABINIT16.pdf .
- The licence allows the authors to put it on the Web.
- DOI and bibtex : see https://docs.abinit.org/theory/bibliography/#gonze2016
-
- [2] First-principles responses of solids to atomic displacements and homogeneous electric fields:,
- implementation of a conjugate-gradient algorithm. X. Gonze, Phys. Rev. B55, 10337 (1997).
- Comment : Non-vanishing rfphon and/or rfelfd, in the norm-conserving case.
- DOI and bibtex : see https://docs.abinit.org/theory/bibliography/#gonze1997
-
- [3] Dynamical matrices, Born effective charges, dielectric permittivity tensors, and ,
- interatomic force constants from density-functional perturbation theory,
- X. Gonze and C. Lee, Phys. Rev. B55, 10355 (1997).
- Comment : Non-vanishing rfphon and/or rfelfd, in the norm-conserving case.
- DOI and bibtex : see https://docs.abinit.org/theory/bibliography/#gonze1997a
-
- [4] ABINIT : First-principles approach of materials and nanosystem properties.
- Computer Phys. Comm. 180, 2582-2615 (2009).
- X. Gonze, B. Amadon, P.-M. Anglade, J.-M. Beuken, F. Bottin, P. Boulanger, F. Bruneval,
- D. Caliste, R. Caracas, M. Cote, T. Deutsch, L. Genovese, Ph. Ghosez, M. Giantomassi
- S. Goedecker, D.R. Hamann, P. Hermet, F. Jollet, G. Jomard, S. Leroux, M. Mancini, S. Mazevet,
- M.J.T. Oliveira, G. Onida, Y. Pouillon, T. Rangel, G.-M. Rignanese, D. Sangalli, R. Shaltaf,
- M. Torrent, M.J. Verstraete, G. Zerah, J.W. Zwanziger
- Comment : the third generic paper describing the ABINIT project.
- Note that a version of this paper, that is not formatted for Computer Phys. Comm. 
- is available at https://www.abinit.org/about/ABINIT_CPC_v10.pdf .
- The licence allows the authors to put it on the Web.
- DOI and bibtex : see https://docs.abinit.org/theory/bibliography/#gonze2009
-
- [5] A brief introduction to the ABINIT software package.
- Z. Kristallogr. 220, 558-562 (2005).
- X. Gonze, G.-M. Rignanese, M. Verstraete, J.-M. Beuken, Y. Pouillon, R. Caracas, F. Jollet,
- M. Torrent, G. Zerah, M. Mikami, Ph. Ghosez, M. Veithen, J.-Y. Raty, V. Olevano, F. Bruneval,
- L. Reining, R. Godby, G. Onida, D.R. Hamann, and D.C. Allan.
- Comment : the second generic paper describing the ABINIT project. Note that this paper
- should be cited especially if you are using the GW part of ABINIT, as several authors
- of this part are not in the list of authors of the first or third paper.
- The .pdf of the latter paper is available at https://www.abinit.org/about/zfk_0505-06_558-562.pdf.
- Note that it should not redistributed (Copyright by Oldenburg Wissenshaftverlag,
- the licence allows the authors to put it on the Web).
- DOI and bibtex : see https://docs.abinit.org/theory/bibliography/#gonze2005
-
- Proc.   0 individual time (sec): cpu=         38.6  wall=         39.4

================================================================================

 Calculation completed.
.Delivered   3 WARNINGs and   3 COMMENTs to log file.
+Overall time at end (sec) : cpu=        154.9  wall=        157.5
