
.Version 8.10.3 of ABINIT 
.(MPI version, prepared for a x86_64_linux_gnu5.4 computer) 

.Copyright (C) 1998-2018 ABINIT group . 
 ABINIT comes with ABSOLUTELY NO WARRANTY.
 It is free software, and you are welcome to redistribute it
 under certain conditions (GNU General Public License,
 see ~abinit/COPYING or http://www.gnu.org/copyleft/gpl.txt).

 ABINIT is a project of the Universite Catholique de Louvain,
 Corning Inc. and other collaborators, see ~abinit/doc/developers/contributors.txt .
 Please read https://docs.abinit.org/theory/acknowledgments for suggested
 acknowledgments of the ABINIT effort.
 For more information, see https://www.abinit.org .

.Starting date : Mon  4 Nov 2019.
- ( at 16h49 )
  
- input  file    -> telast_2.in
- output file    -> telast_2.out
- root for input  files -> telast_2i
- root for output files -> telast_2o


 DATASET    1 : space group P6_3 m c (#186); Bravais hP (primitive hexag.)
================================================================================
 Values of the parameters that define the memory need for DATASET  1.
     intxc =       0    ionmov =       0      iscf =       7    lmnmax =       2
     lnmax =       2     mgfft =      30  mpssoang =       3    mqgrid =    3001
     natom =       4  nloc_mem =       1    nspden =       1   nspinor =       1
    nsppol =       1      nsym =      12    n1xccc =    2501    ntypat =       2
    occopt =       1   xclevel =       1
-    mband =           8        mffmem =           1         mkmem =           2
       mpw =         428          nfft =        9720          nkpt =           8
================================================================================
P This job should need less than                       3.737 Mbytes of memory.
  Rough estimation (10% accuracy) of disk space for files :
_ WF disk file :      0.420 Mbytes ; DEN or POT disk file :      0.076 Mbytes.
================================================================================


 DATASET    2 : space group P6_3 m c (#186); Bravais hP (primitive hexag.)
================================================================================
 Values of the parameters that define the memory need for DATASET  2 (RF).
     intxc =       0      iscf =      -3    lmnmax =       2     lnmax =       2
     mgfft =      30  mpssoang =       3    mqgrid =    3001     natom =       4
  nloc_mem =       1    nspden =       1   nspinor =       1    nsppol =       1
      nsym =      12    n1xccc =    2501    ntypat =       2    occopt =       1
   xclevel =       1
-    mband =           8        mffmem =           1         mkmem =           8
-   mkqmem =           8        mk1mem =           8           mpw =         428
      nfft =        9720          nkpt =          32
================================================================================
P This job should need less than                       4.256 Mbytes of memory.
  Rough estimation (10% accuracy) of disk space for files :
_ WF disk file :      1.674 Mbytes ; DEN or POT disk file :      0.076 Mbytes.
================================================================================


 DATASET    3 : space group P6_3 m c (#186); Bravais hP (primitive hexag.)
================================================================================
 Values of the parameters that define the memory need for DATASET  3 (RF).
     intxc =       0      iscf =       7    lmnmax =       2     lnmax =       2
     mgfft =      30  mpssoang =       3    mqgrid =    3001     natom =       4
  nloc_mem =       1    nspden =       1   nspinor =       1    nsppol =       1
      nsym =      12    n1xccc =    2501    ntypat =       2    occopt =       1
   xclevel =       1
-    mband =           8        mffmem =           1         mkmem =           8
-   mkqmem =           8        mk1mem =           8           mpw =         428
      nfft =        9720          nkpt =          32
================================================================================
P This job should need less than                       4.330 Mbytes of memory.
  Rough estimation (10% accuracy) of disk space for files :
_ WF disk file :      1.674 Mbytes ; DEN or POT disk file :      0.076 Mbytes.
================================================================================

--------------------------------------------------------------------------------
------------- Echo of variables that govern the present computation ------------
--------------------------------------------------------------------------------
-
- outvars: echo of selected default values                                      
-   iomode0 =  0 , fftalg0 =312 , wfoptalg0 =  0
-
- outvars: echo of global parameters not present in the input file              
-  max_nthreads =    1
-
 -outvars: echo values of preprocessed input variables --------
            acell      7.5389647789E+00  7.5389647789E+00  1.2277795511E+01 Bohr
              amu      2.69815390E+01  7.49215900E+01
           diemac      9.00000000E+00
             ecut      6.00000000E+00 Hartree
           ecutsm      5.00000000E-01 Hartree
-          fftalg         312
           getddk1          0
           getddk2          0
           getddk3         -1
           getwfk1          0
           getwfk2         -1
           getwfk3         -2
             iscf1          7
             iscf2         -3
             iscf3          7
           jdtset        1    2    3
              kpt1     0.00000000E+00  0.00000000E+00  1.25000000E-01
                       2.50000000E-01  0.00000000E+00  1.25000000E-01
                       5.00000000E-01  0.00000000E+00  1.25000000E-01
                       2.50000000E-01  2.50000000E-01  1.25000000E-01
                       0.00000000E+00  0.00000000E+00  3.75000000E-01
                       2.50000000E-01  0.00000000E+00  3.75000000E-01
                       5.00000000E-01  0.00000000E+00  3.75000000E-01
                       2.50000000E-01  2.50000000E-01  3.75000000E-01
              kpt2     0.00000000E+00  0.00000000E+00  1.25000000E-01
                       2.50000000E-01  0.00000000E+00  1.25000000E-01
                       5.00000000E-01  0.00000000E+00  1.25000000E-01
                      -2.50000000E-01  0.00000000E+00  1.25000000E-01
                       0.00000000E+00  2.50000000E-01  1.25000000E-01
                       2.50000000E-01  2.50000000E-01  1.25000000E-01
                       5.00000000E-01  2.50000000E-01  1.25000000E-01
                      -2.50000000E-01  2.50000000E-01  1.25000000E-01
                       0.00000000E+00  5.00000000E-01  1.25000000E-01
                       2.50000000E-01  5.00000000E-01  1.25000000E-01
                       5.00000000E-01  5.00000000E-01  1.25000000E-01
                      -2.50000000E-01  5.00000000E-01  1.25000000E-01
                       0.00000000E+00 -2.50000000E-01  1.25000000E-01
                       2.50000000E-01 -2.50000000E-01  1.25000000E-01
                       5.00000000E-01 -2.50000000E-01  1.25000000E-01
                      -2.50000000E-01 -2.50000000E-01  1.25000000E-01
                       0.00000000E+00  0.00000000E+00  3.75000000E-01
                       2.50000000E-01  0.00000000E+00  3.75000000E-01
                       5.00000000E-01  0.00000000E+00  3.75000000E-01
                      -2.50000000E-01  0.00000000E+00  3.75000000E-01
                       0.00000000E+00  2.50000000E-01  3.75000000E-01
                       2.50000000E-01  2.50000000E-01  3.75000000E-01
                       5.00000000E-01  2.50000000E-01  3.75000000E-01
                      -2.50000000E-01  2.50000000E-01  3.75000000E-01
                       0.00000000E+00  5.00000000E-01  3.75000000E-01
                       2.50000000E-01  5.00000000E-01  3.75000000E-01
                       5.00000000E-01  5.00000000E-01  3.75000000E-01
                      -2.50000000E-01  5.00000000E-01  3.75000000E-01
                       0.00000000E+00 -2.50000000E-01  3.75000000E-01
                       2.50000000E-01 -2.50000000E-01  3.75000000E-01
                       5.00000000E-01 -2.50000000E-01  3.75000000E-01
                      -2.50000000E-01 -2.50000000E-01  3.75000000E-01
              kpt3     0.00000000E+00  0.00000000E+00  1.25000000E-01
                       2.50000000E-01  0.00000000E+00  1.25000000E-01
                       5.00000000E-01  0.00000000E+00  1.25000000E-01
                      -2.50000000E-01  0.00000000E+00  1.25000000E-01
                       0.00000000E+00  2.50000000E-01  1.25000000E-01
                       2.50000000E-01  2.50000000E-01  1.25000000E-01
                       5.00000000E-01  2.50000000E-01  1.25000000E-01
                      -2.50000000E-01  2.50000000E-01  1.25000000E-01
                       0.00000000E+00  5.00000000E-01  1.25000000E-01
                       2.50000000E-01  5.00000000E-01  1.25000000E-01
                       5.00000000E-01  5.00000000E-01  1.25000000E-01
                      -2.50000000E-01  5.00000000E-01  1.25000000E-01
                       0.00000000E+00 -2.50000000E-01  1.25000000E-01
                       2.50000000E-01 -2.50000000E-01  1.25000000E-01
                       5.00000000E-01 -2.50000000E-01  1.25000000E-01
                      -2.50000000E-01 -2.50000000E-01  1.25000000E-01
                       0.00000000E+00  0.00000000E+00  3.75000000E-01
                       2.50000000E-01  0.00000000E+00  3.75000000E-01
                       5.00000000E-01  0.00000000E+00  3.75000000E-01
                      -2.50000000E-01  0.00000000E+00  3.75000000E-01
                       0.00000000E+00  2.50000000E-01  3.75000000E-01
                       2.50000000E-01  2.50000000E-01  3.75000000E-01
                       5.00000000E-01  2.50000000E-01  3.75000000E-01
                      -2.50000000E-01  2.50000000E-01  3.75000000E-01
                       0.00000000E+00  5.00000000E-01  3.75000000E-01
                       2.50000000E-01  5.00000000E-01  3.75000000E-01
                       5.00000000E-01  5.00000000E-01  3.75000000E-01
                      -2.50000000E-01  5.00000000E-01  3.75000000E-01
                       0.00000000E+00 -2.50000000E-01  3.75000000E-01
                       2.50000000E-01 -2.50000000E-01  3.75000000E-01
                       5.00000000E-01 -2.50000000E-01  3.75000000E-01
                      -2.50000000E-01 -2.50000000E-01  3.75000000E-01
           kptopt1          1
           kptopt2          2
           kptopt3          2
         kptrlatt        4    0    0      0    4    0      0    0    4
          kptrlen      3.01558591E+01
P           mkmem1          2
P           mkmem2          8
P           mkmem3          8
P          mkqmem1          2
P          mkqmem2          8
P          mkqmem3          8
P          mk1mem1          2
P          mk1mem2          8
P          mk1mem3          8
            natom           4
            nband1          8
            nband2          8
            nband3          8
           ndtset           3
            ngfft          18      18      30
             nkpt1          8
             nkpt2         32
             nkpt3         32
             nqpt1          0
             nqpt2          1
             nqpt3          1
            nstep          40
             nsym          12
           ntypat           2
              occ1     2.000000  2.000000  2.000000  2.000000  2.000000  2.000000
                       2.000000  2.000000
              occ2     2.000000  2.000000  2.000000  2.000000  2.000000  2.000000
                       2.000000  2.000000
              occ3     2.000000  2.000000  2.000000  2.000000  2.000000  2.000000
                       2.000000  2.000000
        optdriver1          0
        optdriver2          1
        optdriver3          1
        optforces           1
          rfatpol1          1       1
          rfatpol2          1       1
          rfatpol3          1       4
            rfdir1          0       0       0
            rfdir2          1       1       1
            rfdir3          1       1       1
           rfelfd1          0
           rfelfd2          2
           rfelfd3          0
           rfphon1          0
           rfphon2          0
           rfphon3          1
           rfstrs1          0
           rfstrs2          0
           rfstrs3          3
            rprim      8.6602540378E-01  5.0000000000E-01  0.0000000000E+00
                      -8.6602540378E-01  5.0000000000E-01  0.0000000000E+00
                       0.0000000000E+00  0.0000000000E+00  1.0000000000E+00
           shiftk      0.00000000E+00  0.00000000E+00  5.00000000E-01
          spgroup         186
           symrel      1  0  0   0  1  0   0  0  1       0  1  0   1  0  0   0  0  1
                       1  1  0  -1  0  0   0  0  1      -1  0  0   1  1  0   0  0  1
                       0  1  0  -1 -1  0   0  0  1      -1 -1  0   0  1  0   0  0  1
                      -1  0  0   0 -1  0   0  0  1       0 -1  0  -1  0  0   0  0  1
                      -1 -1  0   1  0  0   0  0  1       1  0  0  -1 -1  0   0  0  1
                       0 -1  0   1  1  0   0  0  1       1  1  0   0 -1  0   0  0  1
            tnons      0.0000000  0.0000000  0.0000000     0.0000000  0.0000000  0.5000000
                       0.0000000  0.0000000  0.5000000    -0.0000000  0.0000000  0.0000000
                       0.0000000  0.0000000  0.0000000     0.0000000 -0.0000000  0.5000000
                       0.0000000  0.0000000  0.5000000     0.0000000  0.0000000  0.0000000
                      -0.0000000  0.0000000  0.0000000     0.0000000  0.0000000  0.5000000
                       0.0000000 -0.0000000  0.5000000     0.0000000  0.0000000  0.0000000
           tolvrs1     1.00000000E-18
           tolvrs2     0.00000000E+00
           tolvrs3     1.00000000E-10
           tolwfr1     0.00000000E+00
           tolwfr2     1.00000000E-20
           tolwfr3     0.00000000E+00
            typat      1  1  2  2
              wtk1       0.03125    0.18750    0.09375    0.18750    0.03125    0.18750
                         0.09375    0.18750
              wtk2       0.03125    0.03125    0.03125    0.03125    0.03125    0.03125
                         0.03125    0.03125    0.03125    0.03125    0.03125    0.03125
                         0.03125    0.03125    0.03125    0.03125    0.03125    0.03125
                         0.03125    0.03125    0.03125    0.03125    0.03125    0.03125
                         0.03125    0.03125    0.03125    0.03125    0.03125    0.03125
                         0.03125    0.03125
              wtk3       0.03125    0.03125    0.03125    0.03125    0.03125    0.03125
                         0.03125    0.03125    0.03125    0.03125    0.03125    0.03125
                         0.03125    0.03125    0.03125    0.03125    0.03125    0.03125
                         0.03125    0.03125    0.03125    0.03125    0.03125    0.03125
                         0.03125    0.03125    0.03125    0.03125    0.03125    0.03125
                         0.03125    0.03125
           xangst     -1.1516545358E+00  1.9947241687E+00  0.0000000000E+00
                       1.1516545358E+00  1.9947241687E+00  3.2485647781E+00
                      -1.1516545358E+00  1.9947241687E+00  2.4434786613E+00
                       1.1516545358E+00  1.9947241687E+00  5.6920434394E+00
            xcart     -2.1763116723E+00  3.7694823894E+00  0.0000000000E+00
                       2.1763116723E+00  3.7694823894E+00  6.1388977555E+00
                      -2.1763116723E+00  3.7694823894E+00  4.6175054815E+00
                       2.1763116723E+00  3.7694823894E+00  1.0756403237E+01
             xred      3.3333333333E-01  6.6666666667E-01  0.0000000000E+00
                       6.6666666667E-01  3.3333333333E-01  5.0000000000E-01
                       3.3333333333E-01  6.6666666667E-01  3.7608587611E-01
                       6.6666666667E-01  3.3333333333E-01  8.7608587611E-01
            znucl       13.00000   33.00000

================================================================================

 chkinp: Checking input parameters for consistency, jdtset=   1.

 chkinp: Checking input parameters for consistency, jdtset=   2.

 chkinp: Checking input parameters for consistency, jdtset=   3.

================================================================================
== DATASET  1 ==================================================================
-   nproc =    4

 Exchange-correlation functional for the present dataset will be:
  LDA: new Teter (4/93) with spin-polarized option - ixc=1
 Citation for XC functional:
  S. Goedecker, M. Teter, J. Huetter, PRB 54, 1703 (1996)

 Real(R)+Recip(G) space primitive vectors, cartesian coordinates (Bohr,Bohr^-1):
 R(1)=  6.5289350  3.7694824  0.0000000  G(1)=  0.0765822  0.1326442  0.0000000
 R(2)= -6.5289350  3.7694824  0.0000000  G(2)= -0.0765822  0.1326442  0.0000000
 R(3)=  0.0000000  0.0000000 12.2777955  G(3)=  0.0000000  0.0000000  0.0814478
 Unit cell volume ucvol=  6.0433042E+02 bohr^3
 Angles (23,13,12)=  9.00000000E+01  9.00000000E+01  1.20000000E+02 degrees

 getcut: wavevector=  0.0000  0.0000  0.0000  ngfft=  18  18  30
         ecut(hartree)=      6.000   => boxcut(ratio)=   2.16976

--- Pseudopotential description ------------------------------------------------
- pspini: atom type   1  psp file is ../../../../../Psps_for_tests/13al.pspnc
- pspatm: opening atomic psp file    ../../../../../Psps_for_tests/13al.pspnc
-  Troullier-Martins psp for element  Al        Thu Oct 27 17:31:05 EDT 1994
- 13.00000   3.00000    940714                znucl, zion, pspdat
    1    1    2    2      2001   0.00000      pspcod,pspxc,lmax,lloc,mmax,r2well
    0   4.657  11.889    1   2.2761078        l,e99.0,e99.9,nproj,rcpsp
   0.00000000   0.00000000   0.00000000   0.00000000     rms, ekb1, ekb2, epsatm
    1   1.829   2.761    1   2.2761078        l,e99.0,e99.9,nproj,rcpsp
   0.00000000   0.00000000   0.00000000   0.00000000     rms, ekb1, ekb2, epsatm
    2   0.000   0.000    0   2.2761078        l,e99.0,e99.9,nproj,rcpsp
   0.00000000   0.00000000   0.00000000   0.00000000     rms, ekb1, ekb2, epsatm
    2.09673076353074    0.12648111154518    1.01742091001718   rchrg,fchrg,qchrg
  pspatm : epsatm=    0.22155260
         --- l  ekb(1:nproj) -->
             0    2.540658
             1    1.353815
 pspatm: atomic psp has been read  and splines computed

- pspini: atom type   2  psp file is ../../../../../Psps_for_tests/33as.pspnc
- pspatm: opening atomic psp file    ../../../../../Psps_for_tests/33as.pspnc
-  Troullier-Martins psp for element  As        Thu Oct 27 17:37:14 EDT 1994
- 33.00000   5.00000    940714                znucl, zion, pspdat
    1    1    1    1      2001   0.00000      pspcod,pspxc,lmax,lloc,mmax,r2well
    0   4.772  10.829    1   2.5306160        l,e99.0,e99.9,nproj,rcpsp
   0.00000000   0.00000000   0.00000000   0.00000000     rms, ekb1, ekb2, epsatm
    1   2.745   5.580    0   2.5306160        l,e99.0,e99.9,nproj,rcpsp
   0.00000000   0.00000000   0.00000000   0.00000000     rms, ekb1, ekb2, epsatm
    2.05731715564010    0.36322996461007    2.76014815959125   rchrg,fchrg,qchrg
  pspatm : epsatm=   27.20579911
         --- l  ekb(1:nproj) -->
             0    0.838751
 pspatm: atomic psp has been read  and splines computed

   8.77675255E+02                                ecore*ucvol(ha*bohr**3)
--------------------------------------------------------------------------------

_setup2: Arith. and geom. avg. npw (full set) are     424.219     424.184

================================================================================

     iter   Etot(hartree)      deltaE(h)  residm     vres2    diffor    maxfor
 ETOT  1  -20.254721409682    -2.025E+01 4.634E-03 8.323E+00 1.033E-03 1.033E-03
 ETOT  2  -20.270119196075    -1.540E-02 1.124E-07 4.547E-01 1.196E-03 1.628E-04
 ETOT  3  -20.270903177951    -7.840E-04 5.228E-06 3.336E-02 1.736E-04 1.082E-05
 ETOT  4  -20.270943324825    -4.015E-05 1.668E-07 8.826E-04 9.003E-07 1.172E-05
 ETOT  5  -20.270943768794    -4.440E-07 1.666E-09 6.074E-06 1.355E-05 1.836E-06
 ETOT  6  -20.270943772487    -3.692E-09 1.494E-11 1.055E-07 2.925E-06 1.089E-06
 ETOT  7  -20.270943772569    -8.278E-11 1.151E-12 3.544E-09 1.297E-06 2.073E-07
 ETOT  8  -20.270943772574    -4.373E-12 9.120E-14 4.512E-11 2.843E-07 7.702E-08
 ETOT  9  -20.270943772574    -3.553E-14 2.275E-16 6.457E-13 3.544E-09 7.347E-08
 ETOT 10  -20.270943772574    -3.553E-15 4.016E-18 1.237E-14 4.232E-10 7.305E-08
 ETOT 11  -20.270943772574     7.105E-15 6.987E-20 1.348E-16 2.166E-12 7.305E-08
 ETOT 12  -20.270943772574    -1.066E-14 4.504E-22 1.033E-18 9.664E-12 7.306E-08
 ETOT 13  -20.270943772574     5.329E-14 6.050E-24 6.241E-21 1.052E-12 7.306E-08

 At SCF step   13       vres2   =  6.24E-21 < tolvrs=  1.00E-18 =>converged.

 Cartesian components of stress tensor (hartree/bohr^3)
  sigma(1 1)= -3.77085404E-10  sigma(3 2)=  0.00000000E+00
  sigma(2 2)= -3.77085404E-10  sigma(3 1)=  0.00000000E+00
  sigma(3 3)=  7.81314738E-10  sigma(2 1)=  0.00000000E+00

 Integrated electronic density in atomic spheres:
 ------------------------------------------------
 Atom  Sphere_radius  Integrated_density
    1        2.00000          0.92179175
    2        2.00000          0.92179175
    3        2.00000          2.53764203
    4        2.00000          2.53764203
================================================================================

 ----iterations are completed or convergence reached----

 Mean square residual over all n,k,spin=   23.179E-25; max=  60.504E-25
 reduced coordinates (array xred) for    4 atoms
       0.333333333333      0.666666666667      0.000000000000
       0.666666666667      0.333333333333      0.500000000000
       0.333333333333      0.666666666667      0.376085876110
       0.666666666667      0.333333333333      0.876085876110
 rms dE/dt=  5.1806E-07; max dE/dt=  9.2165E-07; dE/dt below (all hartree)
    1       0.000000000000      0.000000000000     -0.000000872277
    2       0.000000000000      0.000000000000     -0.000000872277
    3       0.000000000000      0.000000000000      0.000000921648
    4       0.000000000000      0.000000000000      0.000000921648

 cartesian coordinates (angstrom) at end:
    1     -1.15165453574548     1.99472416867831     0.00000000000000
    2      1.15165453574548     1.99472416867831     3.24856477807491
    3     -1.15165453574548     1.99472416867831     2.44347866132478
    4      1.15165453574548     1.99472416867831     5.69204343939969

 cartesian forces (hartree/bohr) at end:
    1     -0.00000000000000    -0.00000000000000     0.00000007305568
    2     -0.00000000000000    -0.00000000000000     0.00000007305568
    3     -0.00000000000000    -0.00000000000000    -0.00000007305568
    4     -0.00000000000000    -0.00000000000000    -0.00000007305568
 frms,max,avg= 4.2178718E-08 7.3055683E-08   0.000E+00  0.000E+00 -2.011E-09 h/b

 cartesian forces (eV/Angstrom) at end:
    1     -0.00000000000000    -0.00000000000000     0.00000375667393
    2     -0.00000000000000    -0.00000000000000     0.00000375667393
    3     -0.00000000000000    -0.00000000000000    -0.00000375667393
    4     -0.00000000000000    -0.00000000000000    -0.00000375667393
 frms,max,avg= 2.1689167E-06 3.7566739E-06   0.000E+00  0.000E+00 -1.034E-07 e/A
 length scales=  7.538964778900  7.538964778900 12.277795511000 bohr
              =  3.989448337357  3.989448337357  6.497129556150 angstroms
 prteigrs : about to open file telast_2o_DS1_EIG
 Fermi (or HOMO) energy (hartree) =   0.08616   Average Vxc (hartree)=  -0.34268
 Eigenvalues (hartree) for nkpt=   8  k points:
 kpt#   1, nband=  8, wtk=  0.03125, kpt=  0.0000  0.0000  0.1250 (reduced coord)
  -0.35501   -0.30563   -0.11714    0.05113    0.05113    0.06669    0.08616    0.08616
 prteigrs : prtvol=0 or 1, do not print more k-points.


--------------------------------------------------------------------------------
 Components of total free energy (in Hartree) :

    Kinetic energy  =  5.91947827139545E+00
    Hartree energy  =  1.65285115607808E+00
    XC energy       = -8.68515356316198E+00
    Ewald energy    = -1.68697612367886E+01
    PspCore energy  =  1.45231023395300E+00
    Loc. psp. energy= -4.92404864088201E+00
    NL   psp  energy=  1.18338000683218E+00
    >>>>>>>>> Etotal= -2.02709437725739E+01

 Other information on the energy :
    Total energy(eV)= -5.51600432199984E+02 ; Band energy (Ha)=  -1.4274245107E+00
--------------------------------------------------------------------------------

 Cartesian components of stress tensor (hartree/bohr^3)
  sigma(1 1)= -3.77085404E-10  sigma(3 2)=  0.00000000E+00
  sigma(2 2)= -3.77085404E-10  sigma(3 1)=  0.00000000E+00
  sigma(3 3)=  7.81314738E-10  sigma(2 1)=  0.00000000E+00

-Cartesian components of stress tensor (GPa)         [Pressure= -2.6620E-07 GPa]
- sigma(1 1)= -1.10942337E-05  sigma(3 2)=  0.00000000E+00
- sigma(2 2)= -1.10942337E-05  sigma(3 1)=  0.00000000E+00
- sigma(3 3)=  2.29870694E-05  sigma(2 1)=  0.00000000E+00

================================================================================
== DATASET  2 ==================================================================
-   nproc =    4

 mkfilename : getwfk/=0, take file _WFK from output of DATASET   1.

 Exchange-correlation functional for the present dataset will be:
  LDA: new Teter (4/93) with spin-polarized option - ixc=1
 Citation for XC functional:
  S. Goedecker, M. Teter, J. Huetter, PRB 54, 1703 (1996)

 Real(R)+Recip(G) space primitive vectors, cartesian coordinates (Bohr,Bohr^-1):
 R(1)=  6.5289350  3.7694824  0.0000000  G(1)=  0.0765822  0.1326442  0.0000000
 R(2)= -6.5289350  3.7694824  0.0000000  G(2)= -0.0765822  0.1326442  0.0000000
 R(3)=  0.0000000  0.0000000 12.2777955  G(3)=  0.0000000  0.0000000  0.0814478
 Unit cell volume ucvol=  6.0433042E+02 bohr^3
 Angles (23,13,12)=  9.00000000E+01  9.00000000E+01  1.20000000E+02 degrees
 setup1 : take into account q-point for computing boxcut.

 getcut: wavevector=  0.0000  0.0000  0.0000  ngfft=  18  18  30
         ecut(hartree)=      6.000   => boxcut(ratio)=   2.16976
--------------------------------------------------------------------------------

-inwffil : will read wavefunctions from disk file telast_2o_DS1_WFK

 ==>  initialize data related to q vector <== 

 The list of irreducible perturbations for this q vector is:
    1)    idir= 1    ipert=   5
    2)    idir= 2    ipert=   5
    3)    idir= 3    ipert=   5

================================================================================

--------------------------------------------------------------------------------
 Perturbation wavevector (in red.coord.)   0.000000  0.000000  0.000000
 Perturbation : derivative vs k along direction   1
 The set of symmetries contains only one element for this perturbation.
 symkpt : not enough symmetry to change the number of k points.

--------------------------------------------------------------------------------

-inwffil : will read wavefunctions from disk file telast_2o_DS1_WFK
--------------------------------------------------------------------------------

 Initialisation of the first-order wave-functions :
  ireadwf=   0

     iter   2DEtotal(Ha)        deltaE(Ha) residm    vres2
-ETOT  1  -17.440502212821     -1.744E+01 1.582E+00 0.000E+00
 ETOT  2  -17.448948386460     -8.446E-03 6.059E-05 0.000E+00
 ETOT  3  -17.448957487254     -9.101E-06 2.799E-07 0.000E+00
 ETOT  4  -17.448957512078     -2.482E-08 3.975E-10 0.000E+00
 ETOT  5  -17.448957512167     -8.912E-11 2.830E-12 0.000E+00
 ETOT  6  -17.448957512168     -4.086E-13 1.147E-14 0.000E+00
 ETOT  7  -17.448957512168      0.000E+00 9.130E-17 0.000E+00
 ETOT  8  -17.448957512168     -3.553E-15 3.664E-19 0.000E+00
 ETOT  9  -17.448957512168      2.487E-14 9.418E-21 0.000E+00

 At SCF step    9   max residual=  9.42E-21 < tolwfr=  1.00E-20 =>converged.
================================================================================

 ----iterations are completed or convergence reached----

 Mean square residual over all n,k,spin=   40.401E-22; max=  94.176E-22
 dfpt_looppert : ek2=    2.9636371009E+01
          f-sum rule ratio=    1.1909195768E+00 (note : ecutsm/=0)
 prteigrs : about to open file telast_2_1WF1_EIG
 Expectation of eigenvalue derivatives (hartree) for nkpt=  32  k points:
  (in case of degenerate eigenvalues, averaged derivative)
 kpt#   1, nband=  8, wtk=  0.03125, kpt=  0.0000  0.0000  0.1250 (reduced coord)
   0.00000   -0.00000    0.00000   -0.00000   -0.00000   -0.00000    0.00000    0.00000
 prteigrs : prtvol=0 or 1, do not print more k-points.


 Eight components of 2nd-order total energy (hartree) are
 1,2,3: 0th-order hamiltonian combined with 1st-order wavefunctions
     kin0=   5.06128570E+01 eigvalue=  -3.49805687E+00  local=  -4.19840319E+01
 4,5,6: 1st-order hamiltonian combined with 1st and 0th-order wfs
     kin1=  -3.52945344E+01  Hartree=   0.00000000E+00     xc=   0.00000000E+00
 7,8,9: eventually, occupation + non-local contributions
    edocc=   0.00000000E+00     enl0=   1.23181893E+01   enl1=   3.96619397E-01
 1-9 gives the relaxation energy (to be shifted if some occ is /=2.0)
   erelax=  -1.74489575E+01
  No Ewald or frozen-wf contrib.: the relaxation energy is the total one
 2DEtotal=   -0.1744895751E+02 Ha. Also 2DEtotal=   -0.474810280820E+03 eV
    (  non-var. 2DEtotal :   -1.7448957512E+01 Ha)

--------------------------------------------------------------------------------
 Perturbation wavevector (in red.coord.)   0.000000  0.000000  0.000000
 Perturbation : derivative vs k along direction   2
 The set of symmetries contains only one element for this perturbation.
 symkpt : not enough symmetry to change the number of k points.

--------------------------------------------------------------------------------

-inwffil : will read wavefunctions from disk file telast_2o_DS1_WFK
--------------------------------------------------------------------------------

 Initialisation of the first-order wave-functions :
  ireadwf=   0

     iter   2DEtotal(Ha)        deltaE(Ha) residm    vres2
-ETOT  1  -17.441199287388     -1.744E+01 1.904E+00 0.000E+00
 ETOT  2  -17.448950398276     -7.751E-03 8.847E-05 0.000E+00
 ETOT  3  -17.448957494903     -7.097E-06 3.338E-07 0.000E+00
 ETOT  4  -17.448957511244     -1.634E-08 3.566E-10 0.000E+00
 ETOT  5  -17.448957511293     -4.902E-11 1.840E-12 0.000E+00
 ETOT  6  -17.448957511293     -1.741E-13 5.243E-15 0.000E+00
 ETOT  7  -17.448957511293      0.000E+00 3.205E-17 0.000E+00
 ETOT  8  -17.448957511293     -2.132E-14 8.588E-20 0.000E+00
 ETOT  9  -17.448957511293      7.105E-15 9.819E-21 0.000E+00

 At SCF step    9   max residual=  9.82E-21 < tolwfr=  1.00E-20 =>converged.
================================================================================

 ----iterations are completed or convergence reached----

 Mean square residual over all n,k,spin=   40.092E-22; max=  98.187E-22
 dfpt_looppert : ek2=    2.9636371009E+01
          f-sum rule ratio=    1.1909195768E+00 (note : ecutsm/=0)
 prteigrs : about to open file telast_2_1WF1_EIG
 Expectation of eigenvalue derivatives (hartree) for nkpt=  32  k points:
  (in case of degenerate eigenvalues, averaged derivative)
 kpt#   1, nband=  8, wtk=  0.03125, kpt=  0.0000  0.0000  0.1250 (reduced coord)
  -0.00000    0.00000   -0.00000   -0.00000   -0.00000    0.00000   -0.00000   -0.00000
 prteigrs : prtvol=0 or 1, do not print more k-points.


 Eight components of 2nd-order total energy (hartree) are
 1,2,3: 0th-order hamiltonian combined with 1st-order wavefunctions
     kin0=   5.06128570E+01 eigvalue=  -3.49805687E+00  local=  -4.19840319E+01
 4,5,6: 1st-order hamiltonian combined with 1st and 0th-order wfs
     kin1=  -3.52945344E+01  Hartree=   0.00000000E+00     xc=   0.00000000E+00
 7,8,9: eventually, occupation + non-local contributions
    edocc=   0.00000000E+00     enl0=   1.23181893E+01   enl1=   3.96619397E-01
 1-9 gives the relaxation energy (to be shifted if some occ is /=2.0)
   erelax=  -1.74489575E+01
  No Ewald or frozen-wf contrib.: the relaxation energy is the total one
 2DEtotal=   -0.1744895751E+02 Ha. Also 2DEtotal=   -0.474810280797E+03 eV
    (  non-var. 2DEtotal :   -1.7448957511E+01 Ha)

--------------------------------------------------------------------------------
 Perturbation wavevector (in red.coord.)   0.000000  0.000000  0.000000
 Perturbation : derivative vs k along direction   3
 The set of symmetries contains only one element for this perturbation.
 symkpt : not enough symmetry to change the number of k points.

--------------------------------------------------------------------------------

-inwffil : will read wavefunctions from disk file telast_2o_DS1_WFK
--------------------------------------------------------------------------------

 Initialisation of the first-order wave-functions :
  ireadwf=   0

     iter   2DEtotal(Ha)        deltaE(Ha) residm    vres2
-ETOT  1  -4.3006891139131     -4.301E+00 1.233E+00 0.000E+00
 ETOT  2  -4.3022137822056     -1.525E-03 2.556E-05 0.000E+00
 ETOT  3  -4.3022145347326     -7.525E-07 4.901E-08 0.000E+00
 ETOT  4  -4.3022145357713     -1.039E-09 1.221E-11 0.000E+00
 ETOT  5  -4.3022145357732     -1.910E-12 6.906E-14 0.000E+00
 ETOT  6  -4.3022145357732     -1.066E-14 8.293E-17 0.000E+00
 ETOT  7  -4.3022145357732      8.882E-16 4.230E-19 0.000E+00
 ETOT  8  -4.3022145357732      1.776E-15 9.748E-21 0.000E+00

 At SCF step    8   max residual=  9.75E-21 < tolwfr=  1.00E-20 =>converged.
================================================================================

 ----iterations are completed or convergence reached----

 Mean square residual over all n,k,spin=   31.222E-22; max=  97.475E-22
 dfpt_looppert : ek2=    8.3804805667E+00
          f-sum rule ratio=    1.0365451234E+00 (note : ecutsm/=0)
 prteigrs : about to open file telast_2_1WF1_EIG
 Expectation of eigenvalue derivatives (hartree) for nkpt=  32  k points:
  (in case of degenerate eigenvalues, averaged derivative)
 kpt#   1, nband=  8, wtk=  0.03125, kpt=  0.0000  0.0000  0.1250 (reduced coord)
   0.02336   -0.04808    0.09871    0.01853    0.01853   -0.25285   -0.02881   -0.02881
 prteigrs : prtvol=0 or 1, do not print more k-points.


 Eight components of 2nd-order total energy (hartree) are
 1,2,3: 0th-order hamiltonian combined with 1st-order wavefunctions
     kin0=   1.16569357E+01 eigvalue=  -6.63461221E-01  local=  -9.10586391E+00
 4,5,6: 1st-order hamiltonian combined with 1st and 0th-order wfs
     kin1=  -8.68674626E+00  Hartree=   0.00000000E+00     xc=   0.00000000E+00
 7,8,9: eventually, occupation + non-local contributions
    edocc=   0.00000000E+00     enl0=   2.41460400E+00   enl1=   8.23171917E-02
 1-9 gives the relaxation energy (to be shifted if some occ is /=2.0)
   erelax=  -4.30221454E+00
  No Ewald or frozen-wf contrib.: the relaxation energy is the total one
 2DEtotal=   -0.4302214536E+01 Ha. Also 2DEtotal=   -0.117069211181E+03 eV
    (  non-var. 2DEtotal :   -4.3022145357E+00 Ha)
================================================================================

 ---- first-order wavefunction calculations are completed ----


 Total localisation tensor (bohr^2) in cartesian coordinates
  WARNING : still subject to testing - especially symmetries.
      direction              matrix element
   alpha     beta       real part   imaginary part
     1        1       6.5845318119    0.0000000000
     1        2       0.0000000000    0.0000000000
     1        3       0.0000000000    0.0000000000
     2        1       0.0000000000    0.0000000000
     2        2       2.1948439373    0.0000000000
     2        3       0.0000000000    0.0000000000
     3        1       0.0000000000    0.0000000000
     3        2       0.0000000000    0.0000000000
     3        3       2.5459626790    0.0000000000

 respfn : d/dk was computed, but no 2DTE, so no DDB output.

================================================================================
== DATASET  3 ==================================================================
-   nproc =    4

 mkfilename : getwfk/=0, take file _WFK from output of DATASET   1.

 mkfilename : getddk/=0, take file _1WF from output of DATASET   2.

 Exchange-correlation functional for the present dataset will be:
  LDA: new Teter (4/93) with spin-polarized option - ixc=1
 Citation for XC functional:
  S. Goedecker, M. Teter, J. Huetter, PRB 54, 1703 (1996)

 Real(R)+Recip(G) space primitive vectors, cartesian coordinates (Bohr,Bohr^-1):
 R(1)=  6.5289350  3.7694824  0.0000000  G(1)=  0.0765822  0.1326442  0.0000000
 R(2)= -6.5289350  3.7694824  0.0000000  G(2)= -0.0765822  0.1326442  0.0000000
 R(3)=  0.0000000  0.0000000 12.2777955  G(3)=  0.0000000  0.0000000  0.0814478
 Unit cell volume ucvol=  6.0433042E+02 bohr^3
 Angles (23,13,12)=  9.00000000E+01  9.00000000E+01  1.20000000E+02 degrees
 setup1 : take into account q-point for computing boxcut.

 getcut: wavevector=  0.0000  0.0000  0.0000  ngfft=  18  18  30
         ecut(hartree)=      6.000   => boxcut(ratio)=   2.16976
--------------------------------------------------------------------------------

-inwffil : will read wavefunctions from disk file telast_2o_DS1_WFK
 symkchk : k-point set has full space-group symmetry.

 ==>  initialize data related to q vector <== 

 The list of irreducible perturbations for this q vector is:
    1)    idir= 1    ipert=   1
    2)    idir= 3    ipert=   1
    3)    idir= 1    ipert=   3
    4)    idir= 3    ipert=   3
    5)    idir= 1    ipert=   7
    6)    idir= 2    ipert=   7
    7)    idir= 3    ipert=   7
    8)    idir= 1    ipert=   8
    9)    idir= 2    ipert=   8
   10)    idir= 3    ipert=   8

================================================================================

 The perturbation idir=   2  ipert=   1 is
 symmetric of a previously calculated perturbation.
 So, its SCF calculation is not needed.


 The perturbation idir=   1  ipert=   2 is
 symmetric of a previously calculated perturbation.
 So, its SCF calculation is not needed.


 The perturbation idir=   2  ipert=   2 is
 symmetric of a previously calculated perturbation.
 So, its SCF calculation is not needed.


 The perturbation idir=   3  ipert=   2 is
 symmetric of a previously calculated perturbation.
 So, its SCF calculation is not needed.


 The perturbation idir=   2  ipert=   3 is
 symmetric of a previously calculated perturbation.
 So, its SCF calculation is not needed.


 The perturbation idir=   1  ipert=   4 is
 symmetric of a previously calculated perturbation.
 So, its SCF calculation is not needed.


 The perturbation idir=   2  ipert=   4 is
 symmetric of a previously calculated perturbation.
 So, its SCF calculation is not needed.


 The perturbation idir=   3  ipert=   4 is
 symmetric of a previously calculated perturbation.
 So, its SCF calculation is not needed.


--------------------------------------------------------------------------------
 Perturbation wavevector (in red.coord.)   0.000000  0.000000  0.000000
 Perturbation : displacement of atom   1   along direction   1
 The set of symmetries contains only one element for this perturbation.
 symkpt : not enough symmetry to change the number of k points.

--------------------------------------------------------------------------------

-inwffil : will read wavefunctions from disk file telast_2o_DS1_WFK
--------------------------------------------------------------------------------

 Initialisation of the first-order wave-functions :
  ireadwf=   0

     iter   2DEtotal(Ha)        deltaE(Ha) residm    vres2
-ETOT  1   8.1327002873181     -1.771E+01 1.218E-02 9.428E+02
 ETOT  2   5.4887479013016     -2.644E+00 1.138E-03 1.071E+01
 ETOT  3   5.4519649758323     -3.678E-02 4.557E-05 4.774E-01
 ETOT  4   5.4508845453571     -1.080E-03 3.565E-07 1.196E-02
 ETOT  5   5.4508666056430     -1.794E-05 2.246E-08 7.317E-05
 ETOT  6   5.4508665188167     -8.683E-08 1.625E-10 1.449E-06
 ETOT  7   5.4508665167883     -2.028E-09 3.815E-12 1.079E-08
 ETOT  8   5.4508665167706     -1.764E-11 9.352E-14 1.013E-10
 ETOT  9   5.4508665167704     -2.025E-13 2.018E-15 1.713E-12

 At SCF step    9       vres2   =  1.71E-12 < tolvrs=  1.00E-10 =>converged.
-open ddk wf file :telast_2o_DS2_1WF13
-open ddk wf file :telast_2o_DS2_1WF14
-open ddk wf file :telast_2o_DS2_1WF15
================================================================================

 ----iterations are completed or convergence reached----

 Mean square residual over all n,k,spin=   40.414E-18; max=  20.177E-16

 Thirteen components of 2nd-order total energy (hartree) are
 1,2,3: 0th-order hamiltonian combined with 1st-order wavefunctions
     kin0=   2.45700246E+01 eigvalue=   6.25955584E-01  local=  -1.66521313E+01
 4,5,6: 1st-order hamiltonian combined with 1st and 0th-order wfs
 loc psp =  -2.39294969E+00  Hartree=   4.31377782E+00     xc=  -1.81281930E+00
 note that "loc psp" includes a xc core correction that could be resolved
 7,8,9: eventually, occupation + non-local contributions
    edocc=   0.00000000E+00     enl0=   9.34346987E+00   enl1=  -3.83836049E+01
 1-9 gives the relaxation energy (to be shifted if some occ is /=2.0)
   erelax=  -2.03882773E+01
 10,11,12 Non-relaxation  contributions : frozen-wavefunctions and Ewald
 fr.local=  -1.29074682E+01 fr.nonlo=   2.76025771E+01  Ewald=   1.21192473E+01
 13,14 Frozen wf xc core corrections (1) and (2)
 frxc 1  =  -4.77204096E+00  frxc 2 =   3.79682846E+00
 Resulting in :
 2DEtotal=    0.5450866517E+01 Ha. Also 2DEtotal=    0.148325621157E+03 eV
    (2DErelax=   -2.0388277256E+01 Ha. 2DEnonrelax=    2.5839143772E+01 Ha)
    (  non-var. 2DEtotal :    5.4508664956E+00 Ha)


--------------------------------------------------------------------------------
 Perturbation wavevector (in red.coord.)   0.000000  0.000000  0.000000
 Perturbation : displacement of atom   1   along direction   3
 Found     6 symmetries that leave the perturbation invariant.
 symkpt : the number of k-points, thanks to the symmetries,
 is reduced to    10 .

--------------------------------------------------------------------------------

-inwffil : will read wavefunctions from disk file telast_2o_DS1_WFK
--------------------------------------------------------------------------------

 Initialisation of the first-order wave-functions :
  ireadwf=   0

     iter   2DEtotal(Ha)        deltaE(Ha) residm    vres2
-ETOT  1   206.73903941702      1.149E+02 1.508E-01 1.704E+05
 ETOT  2   39.519981707403     -1.672E+02 1.495E-01 1.578E+04
 ETOT  3   17.625412022817     -2.189E+01 1.384E-02 8.428E+02
 ETOT  4   16.932236483712     -6.932E-01 3.260E-04 5.629E+00
 ETOT  5   16.927041373674     -5.195E-03 3.032E-06 6.414E-01
 ETOT  6   16.926423417363     -6.180E-04 5.139E-07 4.988E-03
 ETOT  7   16.926416505474     -6.912E-06 5.112E-09 3.494E-04
 ETOT  8   16.926416141870     -3.636E-07 1.315E-10 3.552E-06
 ETOT  9   16.926416138099     -3.771E-09 1.740E-12 1.773E-07
 ETOT 10   16.926416137930     -1.695E-10 4.801E-14 7.265E-09
 ETOT 11   16.926416137923     -6.949E-12 3.348E-15 1.800E-10
 ETOT 12   16.926416137923     -9.948E-14 1.137E-16 1.280E-11

 At SCF step   12       vres2   =  1.28E-11 < tolvrs=  1.00E-10 =>converged.
-open ddk wf file :telast_2o_DS2_1WF13
-open ddk wf file :telast_2o_DS2_1WF14
-open ddk wf file :telast_2o_DS2_1WF15
================================================================================

 ----iterations are completed or convergence reached----

 Mean square residual over all n,k,spin=   24.405E-18; max=  11.370E-17

 Thirteen components of 2nd-order total energy (hartree) are
 1,2,3: 0th-order hamiltonian combined with 1st-order wavefunctions
     kin0=   7.14139570E+01 eigvalue=   2.02433633E+00  local=  -5.11165431E+01
 4,5,6: 1st-order hamiltonian combined with 1st and 0th-order wfs
 loc psp =  -4.33910807E+01  Hartree=   2.92832712E+01     xc=  -5.48026856E+00
 note that "loc psp" includes a xc core correction that could be resolved
 7,8,9: eventually, occupation + non-local contributions
    edocc=   0.00000000E+00     enl0=   2.87396015E+01   enl1=  -1.06337629E+02
 1-9 gives the relaxation energy (to be shifted if some occ is /=2.0)
   erelax=  -7.48643550E+01
 10,11,12 Non-relaxation  contributions : frozen-wavefunctions and Ewald
 fr.local=  -3.45768156E+01 fr.nonlo=   7.08442240E+01  Ewald=   5.79607533E+01
 13,14 Frozen wf xc core corrections (1) and (2)
 frxc 1  =  -1.26915322E+01  frxc 2 =   1.02541417E+01
 Resulting in :
 2DEtotal=    0.1692641614E+02 Ha. Also 2DEtotal=    0.460591206903E+03 eV
    (2DErelax=   -7.4864355001E+01 Ha. 2DEnonrelax=    9.1790771139E+01 Ha)
    (  non-var. 2DEtotal :    1.6926416440E+01 Ha)


--------------------------------------------------------------------------------
 Perturbation wavevector (in red.coord.)   0.000000  0.000000  0.000000
 Perturbation : displacement of atom   3   along direction   1
 The set of symmetries contains only one element for this perturbation.
 symkpt : not enough symmetry to change the number of k points.

--------------------------------------------------------------------------------

-inwffil : will read wavefunctions from disk file telast_2o_DS1_WFK
--------------------------------------------------------------------------------

 Initialisation of the first-order wave-functions :
  ireadwf=   0

     iter   2DEtotal(Ha)        deltaE(Ha) residm    vres2
-ETOT  1   46.481958197198     -4.816E+01 9.259E-02 1.280E+04
 ETOT  2   6.5144550100985     -3.997E+01 1.796E-02 2.552E+02
 ETOT  3   5.4741443640792     -1.040E+00 6.674E-04 3.517E+00
 ETOT  4   5.4668772240651     -7.267E-03 1.132E-05 5.710E-02
 ETOT  5   5.4667951621149     -8.206E-05 3.888E-07 4.200E-04
 ETOT  6   5.4667946508107     -5.113E-07 8.390E-10 7.905E-06
 ETOT  7   5.4667946402926     -1.052E-08 2.342E-11 5.587E-08
 ETOT  8   5.4667946402153     -7.725E-11 4.010E-13 7.675E-10
 ETOT  9   5.4667946402138     -1.535E-12 9.387E-15 9.584E-12

 At SCF step    9       vres2   =  9.58E-12 < tolvrs=  1.00E-10 =>converged.
-open ddk wf file :telast_2o_DS2_1WF13
-open ddk wf file :telast_2o_DS2_1WF14
-open ddk wf file :telast_2o_DS2_1WF15
================================================================================

 ----iterations are completed or convergence reached----

 Mean square residual over all n,k,spin=   23.034E-17; max=  93.875E-16

 Thirteen components of 2nd-order total energy (hartree) are
 1,2,3: 0th-order hamiltonian combined with 1st-order wavefunctions
     kin0=   1.07366326E+02 eigvalue=  -4.05525399E-01  local=  -5.67112409E+01
 4,5,6: 1st-order hamiltonian combined with 1st and 0th-order wfs
 loc psp =  -1.43950797E+02  Hartree=   3.86684953E+01     xc=  -1.13800049E+01
 note that "loc psp" includes a xc core correction that could be resolved
 7,8,9: eventually, occupation + non-local contributions
    edocc=   0.00000000E+00     enl0=   1.16384584E+01   enl1=  -3.44022201E+01
 1-9 gives the relaxation energy (to be shifted if some occ is /=2.0)
   erelax=  -8.91765086E+01
 10,11,12 Non-relaxation  contributions : frozen-wavefunctions and Ewald
 fr.local=   6.13127249E+01 fr.nonlo=   1.74876593E+01  Ewald=   1.29936275E+01
 13,14 Frozen wf xc core corrections (1) and (2)
 frxc 1  =  -1.87365174E+01  frxc 2 =   2.15858089E+01
 Resulting in :
 2DEtotal=    0.5466794640E+01 Ha. Also 2DEtotal=    0.148759047439E+03 eV
    (2DErelax=   -8.9176508575E+01 Ha. 2DEnonrelax=    9.4643303215E+01 Ha)
    (  non-var. 2DEtotal :    5.4667946097E+00 Ha)


--------------------------------------------------------------------------------
 Perturbation wavevector (in red.coord.)   0.000000  0.000000  0.000000
 Perturbation : displacement of atom   3   along direction   3
 Found     6 symmetries that leave the perturbation invariant.
 symkpt : the number of k-points, thanks to the symmetries,
 is reduced to    10 .

--------------------------------------------------------------------------------

-inwffil : will read wavefunctions from disk file telast_2o_DS1_WFK
--------------------------------------------------------------------------------

 Initialisation of the first-order wave-functions :
  ireadwf=   0

     iter   2DEtotal(Ha)        deltaE(Ha) residm    vres2
-ETOT  1   1203.2835376045      8.867E+02 1.031E+00 1.023E+06
 ETOT  2   153.75495730788     -1.050E+03 7.577E-01 1.010E+05
 ETOT  3   18.210949581486     -1.355E+02 7.355E-02 1.199E+03
 ETOT  4   17.039756116016     -1.171E+00 3.127E-04 6.554E+01
 ETOT  5   16.974901662406     -6.485E-02 2.351E-05 8.578E-01
 ETOT  6   16.973844569376     -1.057E-03 8.588E-07 2.123E-02
 ETOT  7   16.973819527181     -2.504E-05 1.165E-08 1.479E-03
 ETOT  8   16.973818093911     -1.433E-06 5.381E-10 4.233E-05
 ETOT  9   16.973818059968     -3.394E-08 1.382E-11 2.639E-06
 ETOT 10   16.973818058073     -1.894E-09 8.018E-13 1.484E-07
 ETOT 11   16.973818057953     -1.208E-10 6.538E-14 3.184E-09
 ETOT 12   16.973818057950     -3.070E-12 1.502E-15 6.639E-11

 At SCF step   12       vres2   =  6.64E-11 < tolvrs=  1.00E-10 =>converged.
-open ddk wf file :telast_2o_DS2_1WF13
-open ddk wf file :telast_2o_DS2_1WF14
-open ddk wf file :telast_2o_DS2_1WF15
================================================================================

 ----iterations are completed or convergence reached----

 Mean square residual over all n,k,spin=   56.859E-17; max=  15.025E-16

 Thirteen components of 2nd-order total energy (hartree) are
 1,2,3: 0th-order hamiltonian combined with 1st-order wavefunctions
     kin0=   2.66410603E+02 eigvalue=   2.32330481E+00  local=  -1.32693135E+02
 4,5,6: 1st-order hamiltonian combined with 1st and 0th-order wfs
 loc psp =  -5.13178220E+02  Hartree=   1.67531199E+02     xc=  -2.92613000E+01
 note that "loc psp" includes a xc core correction that could be resolved
 7,8,9: eventually, occupation + non-local contributions
    edocc=   0.00000000E+00     enl0=   2.52680183E+01   enl1=  -8.59791580E+01
 1-9 gives the relaxation energy (to be shifted if some occ is /=2.0)
   erelax=  -2.99578687E+02
 10,11,12 Non-relaxation  contributions : frozen-wavefunctions and Ewald
 fr.local=   1.60075003E+02 fr.nonlo=   4.51701742E+01  Ewald=   1.03475488E+02
 13,14 Frozen wf xc core corrections (1) and (2)
 frxc 1  =  -4.97789305E+01  frxc 2 =   5.76107712E+01
 Resulting in :
 2DEtotal=    0.1697381806E+02 Ha. Also 2DEtotal=    0.461881078745E+03 eV
    (2DErelax=   -2.9957868743E+02 Ha. 2DEnonrelax=    3.1655250548E+02 Ha)
    (  non-var. 2DEtotal :    1.6973816588E+01 Ha)


--------------------------------------------------------------------------------
 Perturbation wavevector (in red.coord.)   0.000000  0.000000  0.000000
 Found     4 symmetries that leave the perturbation invariant.
 symkpt : the number of k-points, thanks to the symmetries,
 is reduced to    14 .

--------------------------------------------------------------------------------

-inwffil : will read wavefunctions from disk file telast_2o_DS1_WFK
--------------------------------------------------------------------------------

 Initialisation of the first-order wave-functions :
  ireadwf=   0

     iter   2DEtotal(Ha)        deltaE(Ha) residm    vres2
-ETOT  1   6.5461655681319     -1.355E+01 3.073E+00 1.057E+03
 ETOT  2   3.5904514030481     -2.956E+00 1.435E-03 5.639E+01
 ETOT  3   3.4147279182322     -1.757E-01 5.387E-05 2.153E+00
 ETOT  4   3.4096555857164     -5.072E-03 2.019E-06 7.432E-02
 ETOT  5   3.4095376557498     -1.179E-04 4.287E-08 1.829E-03
 ETOT  6   3.4095344507928     -3.205E-06 1.141E-09 4.399E-05
 ETOT  7   3.4095343944243     -5.637E-08 2.651E-11 9.465E-07
 ETOT  8   3.4095343932652     -1.159E-09 7.695E-13 7.768E-09
 ETOT  9   3.4095343932556     -9.596E-12 9.847E-15 1.528E-10
 ETOT 10   3.4095343932554     -1.315E-13 1.978E-16 2.790E-12

 At SCF step   10       vres2   =  2.79E-12 < tolvrs=  1.00E-10 =>converged.
-open ddk wf file :telast_2o_DS2_1WF13
-open ddk wf file :telast_2o_DS2_1WF14
-open ddk wf file :telast_2o_DS2_1WF15
================================================================================

 ----iterations are completed or convergence reached----

 Mean square residual over all n,k,spin=   35.350E-18; max=  19.778E-17

 Seventeen components of 2nd-order total energy (hartree) are
 1,2,3: 0th-order hamiltonian combined with 1st-order wavefunctions
     kin0=   1.83409595E+01 eigvalue=   9.11428062E-01  local=  -7.40320233E+00
 4,5,6,7: 1st-order hamiltonian combined with 1st and 0th-order wfs
 loc psp =  -1.43465338E+01  Hartree=   6.60751186E+00     xc=  -1.33978720E+00
     kin1=  -1.80025780E+01
 8,9,10: eventually, occupation + non-local contributions
    edocc=   0.00000000E+00     enl0=   1.91116922E+00   enl1=  -3.36623853E+00
 1-10 gives the relaxation energy (to be shifted if some occ is /=2.0)
   erelax=  -1.66872712E+01
 11,12,13 Non-relaxation  contributions : frozen-wavefunctions and Ewald
  fr.hart=   1.57108502E-01   fr.kin=   1.16256589E+01 fr.loc=   1.50982282E+00
 14,15,16 Non-relaxation  contributions : frozen-wavefunctions and Ewald
  fr.nonl=   2.55265585E+00    fr.xc=  -5.79257273E-01  Ewald=   3.37850650E+00
 17 Non-relaxation  contributions : pseudopotential core energy
  pspcore=   1.45231023E+00
 Resulting in :
 2DEtotal=    0.3409534393E+01 Ha. Also 2DEtotal=    0.927781491587E+02 eV
    (2DErelax=   -1.6687271168E+01 Ha. 2DEnonrelax=    2.0096805561E+01 Ha)
    (  non-var. 2DEtotal :    3.4095343890E+00 Ha)


--------------------------------------------------------------------------------
 Perturbation wavevector (in red.coord.)   0.000000  0.000000  0.000000
 Found     4 symmetries that leave the perturbation invariant.
 symkpt : the number of k-points, thanks to the symmetries,
 is reduced to    14 .

--------------------------------------------------------------------------------

-inwffil : will read wavefunctions from disk file telast_2o_DS1_WFK
--------------------------------------------------------------------------------

 Initialisation of the first-order wave-functions :
  ireadwf=   0

     iter   2DEtotal(Ha)        deltaE(Ha) residm    vres2
-ETOT  1   6.5438570512101     -1.355E+01 3.626E+00 1.057E+03
 ETOT  2   3.5896618390331     -2.954E+00 2.489E-03 5.621E+01
 ETOT  3   3.4147123598557     -1.749E-01 6.101E-05 2.145E+00
 ETOT  4   3.4096562006842     -5.056E-03 1.881E-06 7.459E-02
 ETOT  5   3.4095377208959     -1.185E-04 4.789E-08 1.851E-03
 ETOT  6   3.4095344497784     -3.271E-06 1.642E-09 4.452E-05
 ETOT  7   3.4095343923685     -5.741E-08 2.509E-11 9.364E-07
 ETOT  8   3.4095343912436     -1.125E-09 6.279E-13 8.064E-09
 ETOT  9   3.4095343912337     -9.880E-12 7.620E-15 1.589E-10
 ETOT 10   3.4095343912334     -2.949E-13 2.264E-16 3.499E-12

 At SCF step   10       vres2   =  3.50E-12 < tolvrs=  1.00E-10 =>converged.
-open ddk wf file :telast_2o_DS2_1WF13
-open ddk wf file :telast_2o_DS2_1WF14
-open ddk wf file :telast_2o_DS2_1WF15
================================================================================

 ----iterations are completed or convergence reached----

 Mean square residual over all n,k,spin=   38.937E-18; max=  22.643E-17

 Seventeen components of 2nd-order total energy (hartree) are
 1,2,3: 0th-order hamiltonian combined with 1st-order wavefunctions
     kin0=   1.83409595E+01 eigvalue=   9.11428062E-01  local=  -7.40320231E+00
 4,5,6,7: 1st-order hamiltonian combined with 1st and 0th-order wfs
 loc psp =  -1.43465338E+01  Hartree=   6.60751185E+00     xc=  -1.33978720E+00
     kin1=  -1.80025780E+01
 8,9,10: eventually, occupation + non-local contributions
    edocc=   0.00000000E+00     enl0=   1.91116922E+00   enl1=  -3.36623854E+00
 1-10 gives the relaxation energy (to be shifted if some occ is /=2.0)
   erelax=  -1.66872712E+01
 11,12,13 Non-relaxation  contributions : frozen-wavefunctions and Ewald
  fr.hart=   1.57108502E-01   fr.kin=   1.16256589E+01 fr.loc=   1.50982282E+00
 14,15,16 Non-relaxation  contributions : frozen-wavefunctions and Ewald
  fr.nonl=   2.55265585E+00    fr.xc=  -5.79257273E-01  Ewald=   3.37850650E+00
 17 Non-relaxation  contributions : pseudopotential core energy
  pspcore=   1.45231023E+00
 Resulting in :
 2DEtotal=    0.3409534391E+01 Ha. Also 2DEtotal=    0.927781491037E+02 eV
    (2DErelax=   -1.6687271170E+01 Ha. 2DEnonrelax=    2.0096805562E+01 Ha)
    (  non-var. 2DEtotal :    3.4095344123E+00 Ha)


--------------------------------------------------------------------------------
 Perturbation wavevector (in red.coord.)   0.000000  0.000000  0.000000
 Found    12 symmetries that leave the perturbation invariant.
 symkpt : the number of k-points, thanks to the symmetries,
 is reduced to     8 .

--------------------------------------------------------------------------------

-inwffil : will read wavefunctions from disk file telast_2o_DS1_WFK
--------------------------------------------------------------------------------

 Initialisation of the first-order wave-functions :
  ireadwf=   0

     iter   2DEtotal(Ha)        deltaE(Ha) residm    vres2
-ETOT  1   6.9564649573178     -1.475E+01 9.224E+00 1.083E+03
 ETOT  2   3.9215704460198     -3.035E+00 2.249E-03 5.391E+01
 ETOT  3   3.7565641410372     -1.650E-01 5.464E-05 2.350E+00
 ETOT  4   3.7505560877522     -6.008E-03 1.734E-06 5.955E-02
 ETOT  5   3.7504553158048     -1.008E-04 4.028E-08 9.403E-04
 ETOT  6   3.7504534344073     -1.881E-06 9.062E-10 1.429E-05
 ETOT  7   3.7504534085505     -2.586E-08 9.437E-12 1.380E-07
 ETOT  8   3.7504534083762     -1.743E-10 6.688E-14 2.621E-09
 ETOT  9   3.7504534083730     -3.247E-12 1.662E-15 6.657E-11

 At SCF step    9       vres2   =  6.66E-11 < tolvrs=  1.00E-10 =>converged.
-open ddk wf file :telast_2o_DS2_1WF13
-open ddk wf file :telast_2o_DS2_1WF14
-open ddk wf file :telast_2o_DS2_1WF15
================================================================================

 ----iterations are completed or convergence reached----

 Mean square residual over all n,k,spin=   45.383E-17; max=  16.615E-16

 Seventeen components of 2nd-order total energy (hartree) are
 1,2,3: 0th-order hamiltonian combined with 1st-order wavefunctions
     kin0=   1.94255331E+01 eigvalue=   9.98636339E-01  local=  -7.69884768E+00
 4,5,6,7: 1st-order hamiltonian combined with 1st and 0th-order wfs
 loc psp =  -1.78317288E+01  Hartree=   8.13546895E+00     xc=  -1.53606649E+00
     kin1=  -1.83622994E+01
 8,9,10: eventually, occupation + non-local contributions
    edocc=   0.00000000E+00     enl0=   1.85101227E+00   enl1=  -2.93963984E+00
 1-10 gives the relaxation energy (to be shifted if some occ is /=2.0)
   erelax=  -1.79579315E+01
 11,12,13 Non-relaxation  contributions : frozen-wavefunctions and Ewald
  fr.hart=   7.04608277E-01   fr.kin=   1.17316797E+01 fr.loc=  -1.46317491E+00
 14,15,16 Non-relaxation  contributions : frozen-wavefunctions and Ewald
  fr.nonl=   2.54397449E+00    fr.xc=  -5.90180537E-01  Ewald=   7.32916765E+00
 17 Non-relaxation  contributions : pseudopotential core energy
  pspcore=   1.45231023E+00
 Resulting in :
 2DEtotal=    0.3750453408E+01 Ha. Also 2DEtotal=    0.102055027344E+03 eV
    (2DErelax=   -1.7957931531E+01 Ha. 2DEnonrelax=    2.1708384940E+01 Ha)
    (  non-var. 2DEtotal :    3.7504536462E+00 Ha)


--------------------------------------------------------------------------------
 Perturbation wavevector (in red.coord.)   0.000000  0.000000  0.000000
 Found     2 symmetries that leave the perturbation invariant.
 symkpt : the number of k-points, thanks to the symmetries,
 is reduced to    20 .

--------------------------------------------------------------------------------

-inwffil : will read wavefunctions from disk file telast_2o_DS1_WFK
--------------------------------------------------------------------------------

 Initialisation of the first-order wave-functions :
  ireadwf=   0

     iter   2DEtotal(Ha)        deltaE(Ha) residm    vres2
-ETOT  1   1.2913529253623     -6.004E+00 1.500E+00 1.480E+02
 ETOT  2  0.84261300901817     -4.487E-01 4.358E-04 1.303E+00
 ETOT  3  0.83860068750912     -4.012E-03 4.528E-06 6.436E-02
 ETOT  4  0.83844042303139     -1.603E-04 6.083E-08 1.616E-03
 ETOT  5  0.83843747704578     -2.946E-06 1.481E-09 1.360E-05
 ETOT  6  0.83843745916540     -1.788E-08 9.758E-12 2.308E-07
 ETOT  7  0.83843745886887     -2.965E-10 1.835E-13 3.850E-09
 ETOT  8  0.83843745886266     -6.212E-12 4.206E-15 1.544E-11

 At SCF step    8       vres2   =  1.54E-11 < tolvrs=  1.00E-10 =>converged.
-open ddk wf file :telast_2o_DS2_1WF13
-open ddk wf file :telast_2o_DS2_1WF14
-open ddk wf file :telast_2o_DS2_1WF15
================================================================================

 ----iterations are completed or convergence reached----

 Mean square residual over all n,k,spin=   76.386E-17; max=  42.061E-16

 Seventeen components of 2nd-order total energy (hartree) are
 1,2,3: 0th-order hamiltonian combined with 1st-order wavefunctions
     kin0=   8.46055345E+00 eigvalue=   1.86527395E-01  local=  -3.34295525E+00
 4,5,6,7: 1st-order hamiltonian combined with 1st and 0th-order wfs
 loc psp =  -4.83630198E+00  Hartree=   2.36141540E+00     xc=  -4.63418222E-01
     kin1=  -8.75796823E+00
 8,9,10: eventually, occupation + non-local contributions
    edocc=   0.00000000E+00     enl0=   5.05345114E-01   enl1=  -5.70529826E-01
 1-10 gives the relaxation energy (to be shifted if some occ is /=2.0)
   erelax=  -6.45733216E+00
 11,12,13 Non-relaxation  contributions : frozen-wavefunctions and Ewald
  fr.hart=  -6.08653929E-01   fr.kin=   5.15413754E+00 fr.loc=   3.18986876E+00
 14,15,16 Non-relaxation  contributions : frozen-wavefunctions and Ewald
  fr.nonl=   2.66174027E-01    fr.xc=   1.10781136E-01  Ewald=  -8.16537908E-01
 17 Non-relaxation  contributions : pseudopotential core energy
  pspcore=   0.00000000E+00
 Resulting in :
 2DEtotal=    0.8384374589E+00 Ha. Also 2DEtotal=    0.228150435357E+02 eV
    (2DErelax=   -6.4573321613E+00 Ha. 2DEnonrelax=    7.2957696202E+00 Ha)
    (  non-var. 2DEtotal :    8.3843759606E-01 Ha)


--------------------------------------------------------------------------------
 Perturbation wavevector (in red.coord.)   0.000000  0.000000  0.000000
 Found     2 symmetries that leave the perturbation invariant.
 symkpt : the number of k-points, thanks to the symmetries,
 is reduced to    20 .

--------------------------------------------------------------------------------

-inwffil : will read wavefunctions from disk file telast_2o_DS1_WFK
--------------------------------------------------------------------------------

 Initialisation of the first-order wave-functions :
  ireadwf=   0

     iter   2DEtotal(Ha)        deltaE(Ha) residm    vres2
-ETOT  1   1.2907506241987     -6.005E+00 4.064E-01 1.480E+02
 ETOT  2  0.84259584996411     -4.482E-01 4.298E-04 1.304E+00
 ETOT  3  0.83860226888071     -3.994E-03 4.526E-06 6.574E-02
 ETOT  4  0.83844075215356     -1.615E-04 6.042E-08 1.859E-03
 ETOT  5  0.83843757137683     -3.181E-06 1.306E-09 8.105E-05
 ETOT  6  0.83843747254066     -9.884E-08 6.490E-11 9.426E-06
 ETOT  7  0.83843745927571     -1.326E-08 6.257E-12 6.422E-08
 ETOT  8  0.83843745919221     -8.350E-11 5.486E-14 8.603E-10
 ETOT  9  0.83843745919116     -1.050E-12 7.586E-16 3.479E-11

 At SCF step    9       vres2   =  3.48E-11 < tolvrs=  1.00E-10 =>converged.
-open ddk wf file :telast_2o_DS2_1WF13
-open ddk wf file :telast_2o_DS2_1WF14
-open ddk wf file :telast_2o_DS2_1WF15
================================================================================

 ----iterations are completed or convergence reached----

 Mean square residual over all n,k,spin=   13.498E-17; max=  75.860E-17

 Seventeen components of 2nd-order total energy (hartree) are
 1,2,3: 0th-order hamiltonian combined with 1st-order wavefunctions
     kin0=   8.46055366E+00 eigvalue=   1.86527408E-01  local=  -3.34295532E+00
 4,5,6,7: 1st-order hamiltonian combined with 1st and 0th-order wfs
 loc psp =  -4.83630218E+00  Hartree=   2.36141553E+00     xc=  -4.63418245E-01
     kin1=  -8.75796830E+00
 8,9,10: eventually, occupation + non-local contributions
    edocc=   0.00000000E+00     enl0=   5.05345113E-01   enl1=  -5.70529818E-01
 1-10 gives the relaxation energy (to be shifted if some occ is /=2.0)
   erelax=  -6.45733216E+00
 11,12,13 Non-relaxation  contributions : frozen-wavefunctions and Ewald
  fr.hart=  -6.08653929E-01   fr.kin=   5.15413754E+00 fr.loc=   3.18986876E+00
 14,15,16 Non-relaxation  contributions : frozen-wavefunctions and Ewald
  fr.nonl=   2.66174027E-01    fr.xc=   1.10781136E-01  Ewald=  -8.16537908E-01
 17 Non-relaxation  contributions : pseudopotential core energy
  pspcore=   0.00000000E+00
 Resulting in :
 2DEtotal=    0.8384374592E+00 Ha. Also 2DEtotal=    0.228150435447E+02 eV
    (2DErelax=   -6.4573321608E+00 Ha. 2DEnonrelax=    7.2957696200E+00 Ha)
    (  non-var. 2DEtotal :    8.3843748795E-01 Ha)


--------------------------------------------------------------------------------
 Perturbation wavevector (in red.coord.)   0.000000  0.000000  0.000000
 Found     2 symmetries that leave the perturbation invariant.
 symkpt : the number of k-points, thanks to the symmetries,
 is reduced to    20 .

--------------------------------------------------------------------------------

-inwffil : will read wavefunctions from disk file telast_2o_DS1_WFK
--------------------------------------------------------------------------------

 Initialisation of the first-order wave-functions :
  ireadwf=   0

     iter   2DEtotal(Ha)        deltaE(Ha) residm    vres2
-ETOT  1   2.3955206712387     -6.519E+00 6.313E-01 4.126E+02
 ETOT  2   1.3040285612828     -1.091E+00 4.926E-04 4.735E+00
 ETOT  3   1.2898965929069     -1.413E-02 1.857E-05 3.504E-01
 ETOT  4   1.2891922904717     -7.043E-04 2.937E-07 8.931E-03
 ETOT  5   1.2891780692286     -1.422E-05 7.582E-09 5.989E-05
 ETOT  6   1.2891779996441     -6.958E-08 4.440E-11 7.675E-07
 ETOT  7   1.2891779984652     -1.179E-09 1.236E-12 2.972E-08
 ETOT  8   1.2891779983785     -8.674E-11 2.674E-14 7.671E-10
 ETOT  9   1.2891779983765     -1.973E-12 9.086E-16 4.128E-12

 At SCF step    9       vres2   =  4.13E-12 < tolvrs=  1.00E-10 =>converged.
-open ddk wf file :telast_2o_DS2_1WF13
-open ddk wf file :telast_2o_DS2_1WF14
-open ddk wf file :telast_2o_DS2_1WF15
================================================================================

 ----iterations are completed or convergence reached----

 Mean square residual over all n,k,spin=   26.957E-17; max=  90.857E-17

 Seventeen components of 2nd-order total energy (hartree) are
 1,2,3: 0th-order hamiltonian combined with 1st-order wavefunctions
     kin0=   9.10477377E+00 eigvalue=   3.11026192E-01  local=  -3.66858400E+00
 4,5,6,7: 1st-order hamiltonian combined with 1st and 0th-order wfs
 loc psp =  -8.91644854E+00  Hartree=   4.33575579E+00     xc=  -6.58530144E-01
     kin1=  -8.62111394E+00
 8,9,10: eventually, occupation + non-local contributions
    edocc=   0.00000000E+00     enl0=   6.43290186E-01   enl1=  -1.55388976E-01
 1-10 gives the relaxation energy (to be shifted if some occ is /=2.0)
   erelax=  -7.62521966E+00
 11,12,13 Non-relaxation  contributions : frozen-wavefunctions and Ewald
  fr.hart=  -1.18530360E-01   fr.kin=   5.20015329E+00 fr.loc=   4.18792212E-01
 14,15,16 Non-relaxation  contributions : frozen-wavefunctions and Ewald
  fr.nonl=   2.94970614E-01    fr.xc=   9.41457967E-02  Ewald=   3.02486611E+00
 17 Non-relaxation  contributions : pseudopotential core energy
  pspcore=   0.00000000E+00
 Resulting in :
 2DEtotal=    0.1289177998E+01 Ha. Also 2DEtotal=    0.350803173777E+02 eV
    (2DErelax=   -7.6252196637E+00 Ha. 2DEnonrelax=    8.9143976621E+00 Ha)
    (  non-var. 2DEtotal :    1.2891780552E+00 Ha)

================================================================================

 ---- first-order wavefunction calculations are completed ----


 ==> Compute Derivative Database <==
  
  2nd-order matrix (non-cartesian coordinates, masses not included,
   asr not included )
  cartesian coordinates for strain terms (1/ucvol factor 
   for elastic tensor components not included) 
     j1       j2             matrix element
  dir pert dir pert     real part     imaginary part
  
   1    1   1    1         5.4508664957         0.0000000000
   1    1   2    1        -2.7254332479         0.0000000000
   1    1   3    1         0.0000000000         0.0000000000
   1    1   1    2         0.1139932759         0.0000000000
   1    1   2    2        -0.0569966379        -0.0000000000
   1    1   3    2        -0.0000000000        -0.0000000000
   1    1   1    3        -0.3164362031         0.0000000000
   1    1   2    3         0.1582181015         0.0000000000
   1    1   3    3        -0.0000000000        -0.0000000000
   1    1   1    4        -5.2484221046        -0.0000000000
   1    1   2    4         2.6242110523        -0.0000000000
   1    1   3    4        -0.0000000000        -0.0000000000
   1    1   1    6        -7.3573152794         0.0000000000
   1    1   2    6         0.0000000000         0.0000000000
   1    1   3    6         0.0000000000         0.0000000000
   1    1   1    7        -0.8156723704         0.0000000000
   1    1   2    7         0.8156723296         0.0000000000
   1    1   3    7        -0.0000000001         0.0000000000
   1    1   1    8         0.3830206642         0.0000000000
   1    1   2    8         0.6634111654         0.0000000000
   1    1   3    8         0.4709287041         0.0000000000
  
   2    1   1    1        -2.7254332479         0.0000000000
   2    1   2    1         5.4508664957         0.0000000000
   2    1   3    1        -0.0000000000         0.0000000000
   2    1   1    2        -0.0569966379        -0.0000000000
   2    1   2    2         0.1139932759        -0.0000000000
   2    1   3    2         0.0000000000        -0.0000000000
   2    1   1    3         0.1582181015         0.0000000000
   2    1   2    3        -0.3164362031         0.0000000000
   2    1   3    3         0.0000000000        -0.0000000000
   2    1   1    4         2.6242110523        -0.0000000000
   2    1   2    4        -5.2484221046         0.0000000000
   2    1   3    4         0.0000000000         0.0000000000
   2    1   1    6        -0.0000000000         0.0000000000
   2    1   2    6        -7.3573152794         0.0000000000
   2    1   3    6         0.0000000000         0.0000000000
   2    1   1    7         0.8156723704         0.0000000000
   2    1   2    7        -0.8156723296         0.0000000000
   2    1   3    7         0.0000000001         0.0000000000
   2    1   1    8         0.3830206642         0.0000000000
   2    1   2    8        -0.6634111654         0.0000000000
   2    1   3    8         0.4709287482         0.0000000000
  
   3    1   1    1         0.0000000000         0.0000000000
   3    1   2    1        -0.0000000000         0.0000000000
   3    1   3    1        16.9264164401         0.0000000000
   3    1   1    2        -0.0000000000        -0.0000000000
   3    1   2    2         0.0000000000        -0.0000000000
   3    1   3    2        -2.5627817136         0.0000000000
   3    1   1    3        -0.0000000000        -0.0000000000
   3    1   2    3         0.0000000000        -0.0000000000
   3    1   3    3        -9.0126286639        -0.0000000000
   3    1   1    4        -0.0000000000        -0.0000000000
   3    1   2    4         0.0000000000         0.0000000000
   3    1   3    4        -5.3510076977         0.0000000000
   3    1   1    6         0.0000000000         0.0000000000
   3    1   2    6         0.0000000000         0.0000000000
   3    1   3    6        -5.0625028169         0.0000000000
   3    1   1    7         1.1112164904         0.0000000000
   3    1   2    7         1.1112165615         0.0000000000
   3    1   3    7        -2.2518810590         0.0000000000
   3    1   1    8        -0.0000000001         0.0000000000
   3    1   2    8        -0.0000005461         0.0000000000
   3    1   3    8        -0.0000000192         0.0000000000
  
   1    2   1    1         0.1139932759        -0.0000000000
   1    2   2    1        -0.0569966379         0.0000000000
   1    2   3    1        -0.0000000000         0.0000000000
   1    2   1    2         5.4508664957         0.0000000000
   1    2   2    2        -2.7254332479         0.0000000000
   1    2   3    2        -0.0000000000         0.0000000000
   1    2   1    3        -5.2484221046         0.0000000000
   1    2   2    3         2.6242110523         0.0000000000
   1    2   3    3         0.0000000000        -0.0000000000
   1    2   1    4        -0.3164362031         0.0000000000
   1    2   2    4         0.1582181015        -0.0000000000
   1    2   3    4         0.0000000000         0.0000000000
   1    2   1    6        -7.3573152794         0.0000000000
   1    2   2    6         0.0000000000         0.0000000000
   1    2   3    6         0.0000000000         0.0000000000
   1    2   1    7         0.8156723703         0.0000000000
   1    2   2    7        -0.8156723296         0.0000000000
   1    2   3    7        -0.0000000001         0.0000000000
   1    2   1    8         0.3830206642         0.0000000000
   1    2   2    8         0.6634111656         0.0000000000
   1    2   3    8        -0.4709287041         0.0000000000
  
   2    2   1    1        -0.0569966379         0.0000000000
   2    2   2    1         0.1139932759         0.0000000000
   2    2   3    1         0.0000000000         0.0000000000
   2    2   1    2        -2.7254332479         0.0000000000
   2    2   2    2         5.4508664957         0.0000000000
   2    2   3    2         0.0000000000         0.0000000000
   2    2   1    3         2.6242110523         0.0000000000
   2    2   2    3        -5.2484221046        -0.0000000000
   2    2   3    3        -0.0000000000         0.0000000000
   2    2   1    4         0.1582181015        -0.0000000000
   2    2   2    4        -0.3164362031         0.0000000000
   2    2   3    4         0.0000000000        -0.0000000000
   2    2   1    6         0.0000000000         0.0000000000
   2    2   2    6        -7.3573152794         0.0000000000
   2    2   3    6         0.0000000000         0.0000000000
   2    2   1    7        -0.8156723703         0.0000000000
   2    2   2    7         0.8156723296         0.0000000000
   2    2   3    7         0.0000000001         0.0000000000
   2    2   1    8         0.3830206642         0.0000000000
   2    2   2    8        -0.6634111656         0.0000000000
   2    2   3    8        -0.4709287481         0.0000000000
  
   3    2   1    1        -0.0000000000         0.0000000000
   3    2   2    1         0.0000000000         0.0000000000
   3    2   3    1        -2.5627817136        -0.0000000000
   3    2   1    2        -0.0000000000         0.0000000000
   3    2   2    2         0.0000000000         0.0000000000
   3    2   3    2        16.9264164401         0.0000000000
   3    2   1    3         0.0000000000        -0.0000000000
   3    2   2    3        -0.0000000000         0.0000000000
   3    2   3    3        -5.3510076977         0.0000000000
   3    2   1    4         0.0000000000         0.0000000000
   3    2   2    4         0.0000000000        -0.0000000000
   3    2   3    4        -9.0126286639        -0.0000000000
   3    2   1    6         0.0000000000         0.0000000000
   3    2   2    6         0.0000000000         0.0000000000
   3    2   3    6        -5.0625028169         0.0000000000
   3    2   1    7         1.1112164905         0.0000000000
   3    2   2    7         1.1112165612         0.0000000000
   3    2   3    7        -2.2518810585         0.0000000000
   3    2   1    8        -0.0000000001         0.0000000000
   3    2   2    8         0.0000005459         0.0000000000
   3    2   3    8        -0.0000000192         0.0000000000
  
   1    3   1    1        -0.3164358353        -0.0000000000
   1    3   2    1         0.1582179177        -0.0000000000
   1    3   3    1        -0.0000000000         0.0000000000
   1    3   1    2        -5.2484220721        -0.0000000000
   1    3   2    2         2.6242110360        -0.0000000000
   1    3   3    2         0.0000000000         0.0000000000
   1    3   1    3         5.4667946120         0.0000000000
   1    3   2    3        -2.7333973060         0.0000000000
   1    3   3    3        -0.0000000000         0.0000000000
   1    3   1    4         0.0980717129         0.0000000000
   1    3   2    4        -0.0490358564        -0.0000000000
   1    3   3    4        -0.0000000000         0.0000000000
   1    3   1    6       -50.8608770436         0.0000000000
   1    3   2    6         0.0000000000         0.0000000000
   1    3   3    6         0.0000000000         0.0000000000
   1    3   1    7        -0.9501295854         0.0000000000
   1    3   2    7         0.9501293960         0.0000000000
   1    3   3    7        -0.0000000001         0.0000000000
   1    3   1    8        -0.3830215166         0.0000000000
   1    3   2    8        -0.6634123845         0.0000000000
   1    3   3    8         0.5485576148         0.0000000000
  
   2    3   1    1         0.1582179177        -0.0000000000
   2    3   2    1        -0.3164358353        -0.0000000000
   2    3   3    1         0.0000000000         0.0000000000
   2    3   1    2         2.6242110360        -0.0000000000
   2    3   2    2        -5.2484220721         0.0000000000
   2    3   3    2        -0.0000000000        -0.0000000000
   2    3   1    3        -2.7333973060         0.0000000000
   2    3   2    3         5.4667946120         0.0000000000
   2    3   3    3         0.0000000000         0.0000000000
   2    3   1    4        -0.0490358564        -0.0000000000
   2    3   2    4         0.0980717129        -0.0000000000
   2    3   3    4        -0.0000000000        -0.0000000000
   2    3   1    6        -0.0000000000         0.0000000000
   2    3   2    6       -50.8608770436         0.0000000000
   2    3   3    6         0.0000000000         0.0000000000
   2    3   1    7         0.9501295854         0.0000000000
   2    3   2    7        -0.9501293960         0.0000000000
   2    3   3    7         0.0000000001         0.0000000000
   2    3   1    8        -0.3830215166         0.0000000000
   2    3   2    8         0.6634123845         0.0000000000
   2    3   3    8         0.5485577987         0.0000000000
  
   3    3   1    1        -0.0000000000         0.0000000000
   3    3   2    1         0.0000000000         0.0000000000
   3    3   3    1        -9.0126304309         0.0000000000
   3    3   1    2         0.0000000000         0.0000000000
   3    3   2    2        -0.0000000000        -0.0000000000
   3    3   3    2        -5.3510076977        -0.0000000000
   3    3   1    3        -0.0000000000         0.0000000000
   3    3   2    3         0.0000000000         0.0000000000
   3    3   3    3        16.9738165885         0.0000000000
   3    3   1    4        -0.0000000000         0.0000000000
   3    3   2    4        -0.0000000000        -0.0000000000
   3    3   3    4        -2.6101744826         0.0000000000
   3    3   1    6         0.0000000000         0.0000000000
   3    3   2    6         0.0000000000         0.0000000000
   3    3   3    6       -45.3513764792         0.0000000000
   3    3   1    7        -1.1112188129         0.0000000000
   3    3   2    7        -1.1112196147         0.0000000000
   3    3   3    7         2.2518786584         0.0000000000
[...]
   3    4   3    7        -0.1834107643         0.0000000000
   3    4   1    8         0.0000000000         0.0000000000
   3    4   2    8         0.0000001613         0.0000000000
   3    4   3    8        -0.0000000081         0.0000000000
  
  Rigid-atom proper piezoelectric tensor, in cartesian coordinates,
  (from strain response)
     j1       j2             matrix element
  dir pert dir pert     real part    imaginary part
  
   1    6   1    7         0.0000000000         0.0000000000
   1    6   2    7         0.0000000000         0.0000000000
   1    6   3    7        -0.0000000000         0.0000000000
   1    6   1    8         0.0000000000         0.0000000000
   1    6   2    8         0.0076114624         0.0000000000
   1    6   3    8         0.0000000000         0.0000000000
  
   2    6   1    7         0.0000000000         0.0000000000
   2    6   2    7         0.0000000000         0.0000000000
   2    6   3    7         0.0000000000         0.0000000000
   2    6   1    8         0.0076114626         0.0000000000
   2    6   2    8         0.0000000000         0.0000000000
   2    6   3    8         0.0000000000         0.0000000000
  
   3    6   1    7         0.0067272988         0.0000000000
   3    6   2    7         0.0067272980         0.0000000000
   3    6   3    7        -0.0129237672         0.0000000000
   3    6   1    8         0.0000000000         0.0000000000
   3    6   2    8         0.0000000000         0.0000000000
   3    6   3    8         0.0000000001         0.0000000000

  Phonon wavevector (reduced coordinates) :  0.00000  0.00000  0.00000
 Phonon energies in Hartree :
   2.892287E-07  9.674497E-07  9.674554E-07  2.812310E-04  2.812310E-04
   9.489055E-04  1.587981E-03  1.587981E-03  1.623262E-03  1.636898E-03
   1.645479E-03  1.645479E-03
 Phonon frequencies in cm-1    :
-  6.347836E-02  2.123307E-01  2.123319E-01  6.172306E+01  6.172306E+01
-  2.082607E+02  3.485216E+02  3.485216E+02  3.562649E+02  3.592577E+02
-  3.611408E+02  3.611408E+02

== END DATASET(S) ==============================================================
================================================================================
  
 -outvars: echo values of variables after computation  --------
            acell      7.5389647789E+00  7.5389647789E+00  1.2277795511E+01 Bohr
              amu      2.69815390E+01  7.49215900E+01
           diemac      9.00000000E+00
             ecut      6.00000000E+00 Hartree
           ecutsm      5.00000000E-01 Hartree
           etotal1    -2.0270943773E+01
           etotal2    -4.3022145358E+00
           etotal3     1.2891779984E+00
            fcart1    -0.0000000000E+00 -0.0000000000E+00  7.3055682625E-08
                      -0.0000000000E+00 -0.0000000000E+00  7.3055682625E-08
                      -0.0000000000E+00 -0.0000000000E+00 -7.3055682625E-08
                      -0.0000000000E+00 -0.0000000000E+00 -7.3055682625E-08
            fcart3     0.0000000000E+00  0.0000000000E+00  0.0000000000E+00
                       0.0000000000E+00  0.0000000000E+00  0.0000000000E+00
                       0.0000000000E+00  0.0000000000E+00  0.0000000000E+00
                       0.0000000000E+00  0.0000000000E+00  0.0000000000E+00
-          fftalg         312
           getddk1          0
           getddk2          0
           getddk3         -1
           getwfk1          0
           getwfk2         -1
           getwfk3         -2
             iscf1          7
             iscf2         -3
             iscf3          7
           jdtset        1    2    3
              kpt1     0.00000000E+00  0.00000000E+00  1.25000000E-01
                       2.50000000E-01  0.00000000E+00  1.25000000E-01
                       5.00000000E-01  0.00000000E+00  1.25000000E-01
                       2.50000000E-01  2.50000000E-01  1.25000000E-01
                       0.00000000E+00  0.00000000E+00  3.75000000E-01
                       2.50000000E-01  0.00000000E+00  3.75000000E-01
                       5.00000000E-01  0.00000000E+00  3.75000000E-01
                       2.50000000E-01  2.50000000E-01  3.75000000E-01
              kpt2     0.00000000E+00  0.00000000E+00  1.25000000E-01
                       2.50000000E-01  0.00000000E+00  1.25000000E-01
                       5.00000000E-01  0.00000000E+00  1.25000000E-01
                      -2.50000000E-01  0.00000000E+00  1.25000000E-01
                       0.00000000E+00  2.50000000E-01  1.25000000E-01
                       2.50000000E-01  2.50000000E-01  1.25000000E-01
                       5.00000000E-01  2.50000000E-01  1.25000000E-01
                      -2.50000000E-01  2.50000000E-01  1.25000000E-01
                       0.00000000E+00  5.00000000E-01  1.25000000E-01
                       2.50000000E-01  5.00000000E-01  1.25000000E-01
                       5.00000000E-01  5.00000000E-01  1.25000000E-01
                      -2.50000000E-01  5.00000000E-01  1.25000000E-01
                       0.00000000E+00 -2.50000000E-01  1.25000000E-01
                       2.50000000E-01 -2.50000000E-01  1.25000000E-01
                       5.00000000E-01 -2.50000000E-01  1.25000000E-01
                      -2.50000000E-01 -2.50000000E-01  1.25000000E-01
                       0.00000000E+00  0.00000000E+00  3.75000000E-01
                       2.50000000E-01  0.00000000E+00  3.75000000E-01
                       5.00000000E-01  0.00000000E+00  3.75000000E-01
                      -2.50000000E-01  0.00000000E+00  3.75000000E-01
                       0.00000000E+00  2.50000000E-01  3.75000000E-01
                       2.50000000E-01  2.50000000E-01  3.75000000E-01
                       5.00000000E-01  2.50000000E-01  3.75000000E-01
                      -2.50000000E-01  2.50000000E-01  3.75000000E-01
                       0.00000000E+00  5.00000000E-01  3.75000000E-01
                       2.50000000E-01  5.00000000E-01  3.75000000E-01
                       5.00000000E-01  5.00000000E-01  3.75000000E-01
                      -2.50000000E-01  5.00000000E-01  3.75000000E-01
                       0.00000000E+00 -2.50000000E-01  3.75000000E-01
                       2.50000000E-01 -2.50000000E-01  3.75000000E-01
                       5.00000000E-01 -2.50000000E-01  3.75000000E-01
                      -2.50000000E-01 -2.50000000E-01  3.75000000E-01
              kpt3     0.00000000E+00  0.00000000E+00  1.25000000E-01
                       2.50000000E-01  0.00000000E+00  1.25000000E-01
                       5.00000000E-01  0.00000000E+00  1.25000000E-01
                      -2.50000000E-01  0.00000000E+00  1.25000000E-01
                       0.00000000E+00  2.50000000E-01  1.25000000E-01
                       2.50000000E-01  2.50000000E-01  1.25000000E-01
                       5.00000000E-01  2.50000000E-01  1.25000000E-01
                      -2.50000000E-01  2.50000000E-01  1.25000000E-01
                       0.00000000E+00  5.00000000E-01  1.25000000E-01
                       2.50000000E-01  5.00000000E-01  1.25000000E-01
                       5.00000000E-01  5.00000000E-01  1.25000000E-01
                      -2.50000000E-01  5.00000000E-01  1.25000000E-01
                       0.00000000E+00 -2.50000000E-01  1.25000000E-01
                       2.50000000E-01 -2.50000000E-01  1.25000000E-01
                       5.00000000E-01 -2.50000000E-01  1.25000000E-01
                      -2.50000000E-01 -2.50000000E-01  1.25000000E-01
                       0.00000000E+00  0.00000000E+00  3.75000000E-01
                       2.50000000E-01  0.00000000E+00  3.75000000E-01
                       5.00000000E-01  0.00000000E+00  3.75000000E-01
                      -2.50000000E-01  0.00000000E+00  3.75000000E-01
                       0.00000000E+00  2.50000000E-01  3.75000000E-01
                       2.50000000E-01  2.50000000E-01  3.75000000E-01
                       5.00000000E-01  2.50000000E-01  3.75000000E-01
                      -2.50000000E-01  2.50000000E-01  3.75000000E-01
                       0.00000000E+00  5.00000000E-01  3.75000000E-01
                       2.50000000E-01  5.00000000E-01  3.75000000E-01
                       5.00000000E-01  5.00000000E-01  3.75000000E-01
                      -2.50000000E-01  5.00000000E-01  3.75000000E-01
                       0.00000000E+00 -2.50000000E-01  3.75000000E-01
                       2.50000000E-01 -2.50000000E-01  3.75000000E-01
                       5.00000000E-01 -2.50000000E-01  3.75000000E-01
                      -2.50000000E-01 -2.50000000E-01  3.75000000E-01
           kptopt1          1
           kptopt2          2
           kptopt3          2
         kptrlatt        4    0    0      0    4    0      0    0    4
          kptrlen      3.01558591E+01
P           mkmem1          2
P           mkmem2          8
P           mkmem3          8
P          mkqmem1          2
P          mkqmem2          8
P          mkqmem3          8
P          mk1mem1          2
P          mk1mem2          8
P          mk1mem3          8
            natom           4
            nband1          8
            nband2          8
            nband3          8
           ndtset           3
            ngfft          18      18      30
             nkpt1          8
             nkpt2         32
             nkpt3         32
             nqpt1          0
             nqpt2          1
             nqpt3          1
            nstep          40
             nsym          12
           ntypat           2
              occ1     2.000000  2.000000  2.000000  2.000000  2.000000  2.000000
                       2.000000  2.000000
              occ2     2.000000  2.000000  2.000000  2.000000  2.000000  2.000000
                       2.000000  2.000000
              occ3     2.000000  2.000000  2.000000  2.000000  2.000000  2.000000
                       2.000000  2.000000
        optdriver1          0
        optdriver2          1
        optdriver3          1
        optforces           1
          rfatpol1          1       1
          rfatpol2          1       1
          rfatpol3          1       4
            rfdir1          0       0       0
            rfdir2          1       1       1
            rfdir3          1       1       1
           rfelfd1          0
           rfelfd2          2
           rfelfd3          0
           rfphon1          0
           rfphon2          0
           rfphon3          1
           rfstrs1          0
           rfstrs2          0
           rfstrs3          3
            rprim      8.6602540378E-01  5.0000000000E-01  0.0000000000E+00
                      -8.6602540378E-01  5.0000000000E-01  0.0000000000E+00
                       0.0000000000E+00  0.0000000000E+00  1.0000000000E+00
           shiftk      0.00000000E+00  0.00000000E+00  5.00000000E-01
          spgroup         186
           strten1    -3.7708540413E-10 -3.7708540370E-10  7.8131473817E-10
                       0.0000000000E+00  0.0000000000E+00  0.0000000000E+00
           strten3     0.0000000000E+00  0.0000000000E+00  0.0000000000E+00
                       0.0000000000E+00  0.0000000000E+00  0.0000000000E+00
           symrel      1  0  0   0  1  0   0  0  1       0  1  0   1  0  0   0  0  1
                       1  1  0  -1  0  0   0  0  1      -1  0  0   1  1  0   0  0  1
                       0  1  0  -1 -1  0   0  0  1      -1 -1  0   0  1  0   0  0  1
                      -1  0  0   0 -1  0   0  0  1       0 -1  0  -1  0  0   0  0  1
                      -1 -1  0   1  0  0   0  0  1       1  0  0  -1 -1  0   0  0  1
                       0 -1  0   1  1  0   0  0  1       1  1  0   0 -1  0   0  0  1
            tnons      0.0000000  0.0000000  0.0000000     0.0000000  0.0000000  0.5000000
                       0.0000000  0.0000000  0.5000000    -0.0000000  0.0000000  0.0000000
                       0.0000000  0.0000000  0.0000000     0.0000000 -0.0000000  0.5000000
                       0.0000000  0.0000000  0.5000000     0.0000000  0.0000000  0.0000000
                      -0.0000000  0.0000000  0.0000000     0.0000000  0.0000000  0.5000000
                       0.0000000 -0.0000000  0.5000000     0.0000000  0.0000000  0.0000000
           tolvrs1     1.00000000E-18
           tolvrs2     0.00000000E+00
           tolvrs3     1.00000000E-10
           tolwfr1     0.00000000E+00
           tolwfr2     1.00000000E-20
           tolwfr3     0.00000000E+00
            typat      1  1  2  2
              wtk1       0.03125    0.18750    0.09375    0.18750    0.03125    0.18750
                         0.09375    0.18750
              wtk2       0.03125    0.03125    0.03125    0.03125    0.03125    0.03125
                         0.03125    0.03125    0.03125    0.03125    0.03125    0.03125
                         0.03125    0.03125    0.03125    0.03125    0.03125    0.03125
                         0.03125    0.03125    0.03125    0.03125    0.03125    0.03125
                         0.03125    0.03125    0.03125    0.03125    0.03125    0.03125
                         0.03125    0.03125
              wtk3       0.03125    0.03125    0.03125    0.03125    0.03125    0.03125
                         0.03125    0.03125    0.03125    0.03125    0.03125    0.03125
                         0.03125    0.03125    0.03125    0.03125    0.03125    0.03125
                         0.03125    0.03125    0.03125    0.03125    0.03125    0.03125
                         0.03125    0.03125    0.03125    0.03125    0.03125    0.03125
                         0.03125    0.03125
           xangst     -1.1516545357E+00  1.9947241687E+00  0.0000000000E+00
                       1.1516545357E+00  1.9947241687E+00  3.2485647781E+00
                      -1.1516545357E+00  1.9947241687E+00  2.4434786613E+00
                       1.1516545357E+00  1.9947241687E+00  5.6920434394E+00
            xcart     -2.1763116723E+00  3.7694823895E+00  0.0000000000E+00
                       2.1763116723E+00  3.7694823895E+00  6.1388977555E+00
                      -2.1763116723E+00  3.7694823895E+00  4.6175054815E+00
                       2.1763116723E+00  3.7694823895E+00  1.0756403237E+01
             xred      3.3333333333E-01  6.6666666667E-01  0.0000000000E+00
                       6.6666666667E-01  3.3333333333E-01  5.0000000000E-01
                       3.3333333333E-01  6.6666666667E-01  3.7608587611E-01
                       6.6666666667E-01  3.3333333333E-01  8.7608587611E-01
            znucl       13.00000   33.00000

================================================================================


- Timing analysis has been suppressed with timopt=0



================================================================================

 Suggested references for the acknowledgment of ABINIT usage.

 The users of ABINIT have little formal obligations with respect to the ABINIT group
 (those specified in the GNU General Public License, http://www.gnu.org/copyleft/gpl.txt).
 However, it is common practice in the scientific literature,
 to acknowledge the efforts of people that have made the research possible.
 In this spirit, please find below suggested citations of work written by ABINIT developers,
 corresponding to implementations inside of ABINIT that you have used in the present run.
 Note also that it will be of great value to readers of publications presenting these results,
 to read papers enabling them to understand the theoretical formalism and details
 of the ABINIT implementation.
 For information on why they are suggested, see also https://docs.abinit.org/theory/acknowledgments.
-
- [1] Metric tensor formulation of strain in density-functional perturbation theory, 
- D. R. Hamann, X. Wu, K. M. Rabe, and D. Vanderbilt, Phys. Rev. B71, 035117 (2005).
- Comment : Non-vanishing rfstrs. Strong suggestion to cite this paper in your publications.
- DOI and bibtex : see https://docs.abinit.org/theory/bibliography/#hamann2005
-
- [2] Recent developments in the ABINIT software package.
- Computer Phys. Comm. 205, 106 (2016).
- X.Gonze, F.Jollet, F.Abreu Araujo, D.Adams, B.Amadon, T.Applencourt,
- C.Audouze, J.-M.Beuken, J.Bieder, A.Bokhanchuk, E.Bousquet, F.Bruneval
- D.Caliste, M.Cote, F.Dahm, F.Da Pieve, M.Delaveau, M.Di Gennaro,
- B.Dorado, C.Espejo, G.Geneste, L.Genovese, A.Gerossier, M.Giantomassi,
- Y.Gillet, D.R.Hamann, L.He, G.Jomard, J.Laflamme Janssen, S.Le Roux,
- A.Levitt, A.Lherbier, F.Liu, I.Lukacevic, A.Martin, C.Martins,
- M.J.T.Oliveira, S.Ponce, Y.Pouillon, T.Rangel, G.-M.Rignanese,
- A.H.Romero, B.Rousseau, O.Rubel, A.A.Shukri, M.Stankovski, M.Torrent,
- M.J.Van Setten, B.Van Troeye, M.J.Verstraete, D.Waroquier, J.Wiktor,
- B.Xu, A.Zhou, J.W.Zwanziger.
- Comment : the fourth generic paper describing the ABINIT project.
- Note that a version of this paper, that is not formatted for Computer Phys. Comm. 
- is available at https://www.abinit.org/about/ABINIT16.pdf .
- The licence allows the authors to put it on the Web.
- DOI and bibtex : see https://docs.abinit.org/theory/bibliography/#gonze2016
-
- [3] First-principles responses of solids to atomic displacements and homogeneous electric fields:,
- implementation of a conjugate-gradient algorithm. X. Gonze, Phys. Rev. B55, 10337 (1997).
- Comment : Non-vanishing rfphon and/or rfelfd, in the norm-conserving case.
- DOI and bibtex : see https://docs.abinit.org/theory/bibliography/#gonze1997
-
- [4] Dynamical matrices, Born effective charges, dielectric permittivity tensors, and ,
- interatomic force constants from density-functional perturbation theory,
- X. Gonze and C. Lee, Phys. Rev. B55, 10355 (1997).
- Comment : Non-vanishing rfphon and/or rfelfd, in the norm-conserving case.
- DOI and bibtex : see https://docs.abinit.org/theory/bibliography/#gonze1997a
-
- [5] ABINIT : First-principles approach of materials and nanosystem properties.
- Computer Phys. Comm. 180, 2582-2615 (2009).
- X. Gonze, B. Amadon, P.-M. Anglade, J.-M. Beuken, F. Bottin, P. Boulanger, F. Bruneval,
- D. Caliste, R. Caracas, M. Cote, T. Deutsch, L. Genovese, Ph. Ghosez, M. Giantomassi
- S. Goedecker, D.R. Hamann, P. Hermet, F. Jollet, G. Jomard, S. Leroux, M. Mancini, S. Mazevet,
- M.J.T. Oliveira, G. Onida, Y. Pouillon, T. Rangel, G.-M. Rignanese, D. Sangalli, R. Shaltaf,
- M. Torrent, M.J. Verstraete, G. Zerah, J.W. Zwanziger
- Comment : the third generic paper describing the ABINIT project.
- Note that a version of this paper, that is not formatted for Computer Phys. Comm. 
- is available at https://www.abinit.org/about/ABINIT_CPC_v10.pdf .
- The licence allows the authors to put it on the Web.
- DOI and bibtex : see https://docs.abinit.org/theory/bibliography/#gonze2009
-
- [6] A brief introduction to the ABINIT software package.
- Z. Kristallogr. 220, 558-562 (2005).
- X. Gonze, G.-M. Rignanese, M. Verstraete, J.-M. Beuken, Y. Pouillon, R. Caracas, F. Jollet,
- M. Torrent, G. Zerah, M. Mikami, Ph. Ghosez, M. Veithen, J.-Y. Raty, V. Olevano, F. Bruneval,
- L. Reining, R. Godby, G. Onida, D.R. Hamann, and D.C. Allan.
- Comment : the second generic paper describing the ABINIT project. Note that this paper
- should be cited especially if you are using the GW part of ABINIT, as several authors
- of this part are not in the list of authors of the first or third paper.
- The .pdf of the latter paper is available at https://www.abinit.org/about/zfk_0505-06_558-562.pdf.
- Note that it should not redistributed (Copyright by Oldenburg Wissenshaftverlag,
- the licence allows the authors to put it on the Web).
- DOI and bibtex : see https://docs.abinit.org/theory/bibliography/#gonze2005
-
- Proc.   0 individual time (sec): cpu=         15.7  wall=         16.1

================================================================================

 Calculation completed.
.Delivered   1 WARNINGs and   0 COMMENTs to log file.
+Overall time at end (sec) : cpu=         63.7  wall=         64.4
