  ABINIT 8.11.13
  
  Give name for formatted input file: 
ddb.in
  Give name for formatted output file:
ddb.out
  Give root name for generic input files:
ddbi
  Give root name for generic output files:
ddbo
  Give root name for generic temporary files:
ddb
 
--- !COMMENT
src_file: m_dtfil.F90
src_line: 1450
message: |
    Output file: ddb.out already exists.
...
 
 
--- !COMMENT
src_file: m_dtfil.F90
src_line: 1474
message: |
    Renaming old ddb.out to ddb.out0006
...
 

.Version 8.11.13 of ABINIT 
.(MPI version, prepared for a x86_64_linux_intel14.0 computer) 

.Copyright (C) 1998-2019 ABINIT group . 
 ABINIT comes with ABSOLUTELY NO WARRANTY.
 It is free software, and you are welcome to redistribute it
 under certain conditions (GNU General Public License,
 see ~abinit/COPYING or http://www.gnu.org/copyleft/gpl.txt).

 ABINIT is a project of the Universite Catholique de Louvain,
 Corning Inc. and other collaborators, see ~abinit/doc/developers/contributors.txt .
 Please read https://docs.abinit.org/theory/acknowledgments for suggested
 acknowledgments of the ABINIT effort.
 For more information, see https://www.abinit.org .

.Starting date : Thu  9 Jan 2020.
- ( at 17h49 )
  
 
 ++++++++++++++++++++++++++++++++++++++++++++++++++++++++++++++++++++++++++++++
 
 === Build Information === 
  Version       : 8.11.13
  Build target  : x86_64_linux_intel14.0
  Build date    : 20191206
 
 === Compiler Suite === 
  C compiler       : intel14.0
  C++ compiler     : gnu14.0
  Fortran compiler : intel14.0
  CFLAGS           :  -g -O2
  CXXFLAGS         :  -g -O2 -mtune=native -march=native
  FCFLAGS          :  -g -extend-source -nofpscomp
  FC_LDFLAGS       :    -static-intel -static-libgcc
 
 === Optimizations === 
  Debug level        : basic
  Optimization level : standard
  Architecture       : intel_xeon
 
 === Multicore === 
  Parallel build : yes
  Parallel I/O   : yes
  openMP support : no
  GPU support    : no
 
 === Connectors / Fallbacks === 
  Connectors on : yes
  Fallbacks on  : yes
  DFT flavor    : libxc-fallback
  FFT flavor    : fftw3
  LINALG flavor : mkl
  TIMER flavor  : abinit
  TRIO flavor   : netcdf
 
 === Experimental features === 
  Exports             : no
  GW double-precision : yes
 
 ++++++++++++++++++++++++++++++++++++++++++++++++++++++++++++++++++++++++++++++
 

 ++++++++++++++++++++++++++++++++++++++++++++++++++++++++++++++++++++++++++++++
 Default optimizations:
   -O3


 Optimizations for 43_ptgroups:
   -O0


 ++++++++++++++++++++++++++++++++++++++++++++++++++++++++++++++++++++++++++++++


 ++++++++++++++++++++++++++++++++++++++++++++++++++++++++++++++++++++++++++++++
 CPP options activated during the build:

                  CC_INTEL                   CXX_GNU                  FC_INTEL
 
 HAVE_FC_ALLOCATABLE_DT...             HAVE_FC_ASYNC  HAVE_FC_COMMAND_ARGUMENT
 
        HAVE_FC_CONTIGUOUS           HAVE_FC_CPUTIME             HAVE_FC_ETIME
 
              HAVE_FC_EXIT             HAVE_FC_FLUSH             HAVE_FC_GAMMA
 
            HAVE_FC_GETENV            HAVE_FC_GETPID   HAVE_FC_IEEE_ARITHMETIC
 
   HAVE_FC_IEEE_EXCEPTIONS             HAVE_FC_IOMSG     HAVE_FC_ISO_C_BINDING
 
  HAVE_FC_ISO_FORTRAN_2008        HAVE_FC_LONG_LINES        HAVE_FC_MOVE_ALLOC
 
  HAVE_FC_ON_THE_FLY_SHAPE           HAVE_FC_PRIVATE         HAVE_FC_PROTECTED
 
           HAVE_FC_SHIFTLR         HAVE_FC_STREAM_IO            HAVE_FC_SYSTEM
 
                  HAVE_FFT            HAVE_FFT_FFTW3              HAVE_FFT_MPI
 
           HAVE_FFT_SERIAL               HAVE_GW_DPC        HAVE_LIBPAW_ABINIT
 
      HAVE_LIBTETRA_ABINIT                HAVE_LIBXC               HAVE_LINALG
 
         HAVE_LINALG_AXPBY        HAVE_LINALG_GEMM3M  HAVE_LINALG_MKL_IMATCOPY
 
   HAVE_LINALG_MKL_OMATADD  HAVE_LINALG_MKL_OMATCOPY   HAVE_LINALG_MKL_THREADS
 
        HAVE_LINALG_SERIAL                  HAVE_MPI                 HAVE_MPI2
 
       HAVE_MPI_IALLREDUCE        HAVE_MPI_IALLTOALL       HAVE_MPI_IALLTOALLV
 
           HAVE_MPI_IBCAST         HAVE_MPI_IGATHERV        HAVE_MPI_INTEGER16
 
               HAVE_MPI_IO HAVE_MPI_TYPE_CREATE_S...               HAVE_NETCDF
 
           HAVE_NETCDF_MPI                HAVE_NUMPY             HAVE_OS_LINUX
 
         HAVE_TIMER_ABINIT                  HAVE_XML              USE_MACROAVE
 
 ++++++++++++++++++++++++++++++++++++++++++++++++++++++++++++++++++++++++++++++

- input  file    -> ddb.in
- output file    -> ddb.out
- root for input  files -> ddbi
- root for output files -> ddbo
 
Netcdf library supports MPI-IO
-instrng: 125 lines of input have been read from file ddb.in
 

 Please give name of formatted atomic psp file
 For atom type 1, psp file is /CECI/home/ucl/naps/jovbever/.PsP/Si/Si.psp8
  read the values zionpsp=  4.0 , pspcod=   8 , lmax=   2
 
 inpspheads: deduce mpsang = 3, n1xccc = 2501.

======================================================= 
invars1m : enter jdtset= 1
 
 symlatt: the Bravais lattice is cF (face-centered cubic)
  xred   is defined in input file
 ingeo: takes atomic coordinates from input array xred
 
 symlatt: the Bravais lattice is cF (face-centered cubic)
 
 symlatt: the Bravais lattice is cF (face-centered cubic)
 symspgr: spgroup= 227  Fd -3 m   (=Oh^7)
 symspgr: optical characteristics = isotropic
 
--- !ERROR
src_file: m_symkpt.F90
src_line: 269
mpi_rank: 0
message: |
    Chksymbreak=1. It has been observed that the k point grid is not symmetric:
    for the symmetry number:    7
    with symrec=   0  1  0  1  0  0 -1 -1 -1
    the symmetric of the k point number:    254 with components:    -1.250000E-01   -1.250000E-01   -1.250000E-01
    does not belong to the k point grid.
    Read the description of the input variable chksymbreak,
    You might switch it to zero, or change your k point grid to one that is symmetric.
...
 
 
 abi_abort: decision taken to exit ...
--------------------------------------------------------------------------
MPI_ABORT was invoked on rank 11 in communicator MPI_COMM_WORLD 
with errorcode 14.

NOTE: invoking MPI_ABORT causes Open MPI to kill all MPI processes.
You may or may not see output from other processes, depending on
exactly when Open MPI kills them.
--------------------------------------------------------------------------
forrtl: error (78): process killed (SIGTERM)
Image              PC                Routine            Line        Source             
libirc.so          00002AAAAFBDC229  Unknown               Unknown  Unknown
libirc.so          00002AAAAFBDABA0  Unknown               Unknown  Unknown
libifcore.so.5     00002AAAAE8A333F  Unknown               Unknown  Unknown
libifcore.so.5     00002AAAAE80AD7F  Unknown               Unknown  Unknown
libifcore.so.5     00002AAAAE81BF4E  Unknown               Unknown  Unknown
libpthread.so.0    0000003A90A0F710  Unknown               Unknown  Unknown
libc.so.6          0000003A906DB2ED  Unknown               Unknown  Unknown
libc.so.6          0000003A90672AEF  Unknown               Unknown  Unknown
libc.so.6          0000003A90666F26  Unknown               Unknown  Unknown
libopen-pal.so.6   00002AAAB14AF4E7  Unknown               Unknown  Unknown
libopen-rte.so.7   00002AAAB1156CAE  Unknown               Unknown  Unknown
libmpi.so.1        00002AAAAE0702DF  Unknown               Unknown  Unknown
libmpi_mpifh.so.2  00002AAAADDC71FA  Unknown               Unknown  Unknown
abinit             0000000002B39E16  Unknown               Unknown  Unknown
abinit             0000000002A9280F  Unknown               Unknown  Unknown
abinit             000000000297952B  Unknown               Unknown  Unknown
abinit             0000000001D830D1  Unknown               Unknown  Unknown
abinit             0000000001D9B791  Unknown               Unknown  Unknown
abinit             0000000001CD3318  Unknown               Unknown  Unknown
abinit             0000000001BF384A  Unknown               Unknown  Unknown
abinit             0000000001BE4383  Unknown               Unknown  Unknown
abinit             0000000001582837  Unknown               Unknown  Unknown
abinit             000000000040BAF0  Unknown               Unknown  Unknown
abinit             0000000000409F96  Unknown               Unknown  Unknown
libc.so.6          0000003A9061ED5D  Unknown               Unknown  Unknown
abinit             0000000000409E89  Unknown               Unknown  Unknown
forrtl: error (78): process killed (SIGTERM)
Image              PC                Routine            Line        Source             
libirc.so          00002AAAAFBDC229  Unknown               Unknown  Unknown
libirc.so          00002AAAAFBDABA0  Unknown               Unknown  Unknown
libifcore.so.5     00002AAAAE8A333F  Unknown               Unknown  Unknown
libifcore.so.5     00002AAAAE80AD7F  Unknown               Unknown  Unknown
libifcore.so.5     00002AAAAE81BF4E  Unknown               Unknown  Unknown
libpthread.so.0    000000360AE0F710  Unknown               Unknown  Unknown
ld-linux-x86-64.s  000000360A20E955  Unknown               Unknown  Unknown
ld-linux-x86-64.s  000000360A20EBA3  Unknown               Unknown  Unknown
libc.so.6          000000360AA35B22  Unknown               Unknown  Unknown
libopen-rte.so.7   00002AAAB117FF72  Unknown               Unknown  Unknown
libopen-rte.so.7   00002AAAB117AE39  Unknown               Unknown  Unknown
libopen-rte.so.7   00002AAAB117B0A4  Unknown               Unknown  Unknown
libmpi.so.1        00002AAAAE05D525  Unknown               Unknown  Unknown
libmpi_mpifh.so.2  00002AAAADDC71FA  Unknown               Unknown  Unknown
abinit             0000000002B39E16  Unknown               Unknown  Unknown
abinit             0000000002A9280F  Unknown               Unknown  Unknown
abinit             000000000297952B  Unknown               Unknown  Unknown
abinit             0000000001D830D1  Unknown               Unknown  Unknown
abinit             0000000001D9B791  Unknown               Unknown  Unknown
abinit             0000000001CD3318  Unknown               Unknown  Unknown
abinit             0000000001BF384A  Unknown               Unknown  Unknown
abinit             0000000001BE4383  Unknown               Unknown  Unknown
abinit             0000000001582837  Unknown               Unknown  Unknown
abinit             000000000040BAF0  Unknown               Unknown  Unknown
abinit             0000000000409F96  Unknown               Unknown  Unknown
libc.so.6          000000360AA1ED5D  Unknown               Unknown  Unknown
abinit             0000000000409E89  Unknown               Unknown  Unknown
forrtl: error (78): process killed (SIGTERM)
Image              PC                Routine            Line        Source             
libirc.so          00002AAAAFBDC229  Unknown               Unknown  Unknown
libirc.so          00002AAAAFBDABA0  Unknown               Unknown  Unknown
libifcore.so.5     00002AAAAE8A333F  Unknown               Unknown  Unknown
libifcore.so.5     00002AAAAE80AD7F  Unknown               Unknown  Unknown
libifcore.so.5     00002AAAAE81BF4E  Unknown               Unknown  Unknown
libpthread.so.0    00000034F0C0F710  Unknown               Unknown  Unknown
libc.so.6          00000034F08DADF5  Unknown               Unknown  Unknown
libifcore.so.5     00002AAAAE821CEE  Unknown               Unknown  Unknown
abinit             0000000002AA8E64  Unknown               Unknown  Unknown
abinit             0000000002A926E9  Unknown               Unknown  Unknown
abinit             000000000297952B  Unknown               Unknown  Unknown
abinit             0000000001D830D1  Unknown               Unknown  Unknown
abinit             0000000001D9B791  Unknown               Unknown  Unknown
abinit             0000000001CD3318  Unknown               Unknown  Unknown
abinit             0000000001BF384A  Unknown               Unknown  Unknown
abinit             0000000001BE4383  Unknown               Unknown  Unknown
abinit             0000000001582837  Unknown               Unknown  Unknown
abinit             000000000040BAF0  Unknown               Unknown  Unknown
abinit             0000000000409F96  Unknown               Unknown  Unknown
libc.so.6          00000034F081ED5D  Unknown               Unknown  Unknown
abinit             0000000000409E89  Unknown               Unknown  Unknown
