
.Version 8.11.13 of ABINIT 
.(MPI version, prepared for a x86_64_linux_intel14.0 computer) 

.Copyright (C) 1998-2019 ABINIT group . 
 ABINIT comes with ABSOLUTELY NO WARRANTY.
 It is free software, and you are welcome to redistribute it
 under certain conditions (GNU General Public License,
 see ~abinit/COPYING or http://www.gnu.org/copyleft/gpl.txt).

 ABINIT is a project of the Universite Catholique de Louvain,
 Corning Inc. and other collaborators, see ~abinit/doc/developers/contributors.txt .
 Please read https://docs.abinit.org/theory/acknowledgments for suggested
 acknowledgments of the ABINIT effort.
 For more information, see https://www.abinit.org .

.Starting date : Fri 10 Jan 2020.
- ( at 11h50 )
  
- input  file    -> opt.in
- output file    -> opt.out
- root for input  files -> opti
- root for output files -> opto
 
 
 Symmetries : space group Fd -3 m (#227); Bravais cF (face-center cubic)
================================================================================
 Values of the parameters that define the memory need of the present run
     intxc =       0    ionmov =       2      iscf =       7    lmnmax =       6
     lnmax =       6     mgfft =      24  mpssoang =       3    mqgrid =    3001
     natom =       2  nloc_mem =       1    nspden =       1   nspinor =       1
    nsppol =       1      nsym =      48    n1xccc =    2501    ntypat =       1
    occopt =       1   xclevel =       2
-    mband =           6        mffmem =           1         mkmem =           5
       mpw =         642          nfft =       13824          nkpt =          28
================================================================================
P This job should need less than                       5.506 Mbytes of memory.
  Rough estimation (10% accuracy) of disk space for files :
_ WF disk file :      1.648 Mbytes ; DEN or POT disk file :      0.107 Mbytes.
================================================================================
 
--------------------------------------------------------------------------------
------------- Echo of variables that govern the present computation ------------
--------------------------------------------------------------------------------
-
- outvars: echo of selected default values                                      
-   iomode0 =  0 , fftalg0 =312 , wfoptalg0 =  0
-
- outvars: echo of global parameters not present in the input file              
-  max_nthreads =    0
-
 -outvars: echo values of preprocessed input variables --------
            acell      1.0335941857E+01  1.0335941857E+01  1.0335941857E+01 Bohr
              amu      2.80855000E+01
          dilatmx      1.05000000E+00
             ecut      1.20000000E+01 Hartree
           ecutsm      5.00000000E-01 Hartree
-          fftalg         312
           ionmov           2
              ixc          11
              kpt     -8.33333333E-02 -1.66666667E-01  0.00000000E+00
                      -8.33333333E-02 -3.33333333E-01  0.00000000E+00
                      -1.66666667E-01 -2.50000000E-01  0.00000000E+00
                      -8.33333333E-02 -2.50000000E-01  8.33333333E-02
                      -8.33333333E-02  5.00000000E-01  0.00000000E+00
                      -1.66666667E-01 -4.16666667E-01  0.00000000E+00
                      -8.33333333E-02 -4.16666667E-01  8.33333333E-02
                      -2.50000000E-01 -3.33333333E-01  0.00000000E+00
                      -1.66666667E-01 -3.33333333E-01  8.33333333E-02
                      -8.33333333E-02 -3.33333333E-01  1.66666667E-01
                      -8.33333333E-02  3.33333333E-01  0.00000000E+00
                      -1.66666667E-01  4.16666667E-01  0.00000000E+00
                      -2.50000000E-01  5.00000000E-01  0.00000000E+00
                      -1.66666667E-01  5.00000000E-01  8.33333333E-02
                      -3.33333333E-01 -4.16666667E-01  0.00000000E+00
                      -2.50000000E-01 -4.16666667E-01  8.33333333E-02
                      -1.66666667E-01 -4.16666667E-01  1.66666667E-01
                      -8.33333333E-02 -4.16666667E-01  2.50000000E-01
                      -8.33333333E-02  1.66666667E-01  0.00000000E+00
                      -1.66666667E-01  2.50000000E-01  0.00000000E+00
                      -2.50000000E-01  3.33333333E-01  0.00000000E+00
                      -3.33333333E-01  4.16666667E-01  0.00000000E+00
                      -4.16666667E-01  5.00000000E-01  0.00000000E+00
                      -3.33333333E-01  5.00000000E-01  8.33333333E-02
                      -2.50000000E-01  5.00000000E-01  1.66666667E-01
                      -8.33333333E-02  0.00000000E+00  0.00000000E+00
                      -2.50000000E-01  0.00000000E+00  0.00000000E+00
                      -4.16666667E-01  0.00000000E+00  0.00000000E+00
         kptrlatt        6   -6    6     -6    6    6     -6   -6    6
          kptrlen      6.20156511E+01
P           mkmem           5
            natom           2
            nband           6
            ngfft          24      24      24
             nkpt          28
             nsym          48
            ntime          15
           ntypat           1
              occ      2.000000  2.000000  2.000000  2.000000  0.000000  0.000000
          optcell           2
            rprim      5.0000000000E-01  5.0000000000E-01  0.0000000000E+00
                       0.0000000000E+00  5.0000000000E-01  5.0000000000E-01
                       5.0000000000E-01  0.0000000000E+00  5.0000000000E-01
           shiftk      5.00000000E-01  5.00000000E-01  5.00000000E-01
          spgroup         227
           symrel      1  0  0   0  1  0   0  0  1      -1  0  0   0 -1  0   0  0 -1
                       0 -1  1   0 -1  0   1 -1  0       0  1 -1   0  1  0  -1  1  0
                      -1  0  0  -1  0  1  -1  1  0       1  0  0   1  0 -1   1 -1  0
                       0  1 -1   1  0 -1   0  0 -1       0 -1  1  -1  0  1   0  0  1
                      -1  0  0  -1  1  0  -1  0  1       1  0  0   1 -1  0   1  0 -1
                       0 -1  1   1 -1  0   0 -1  0       0  1 -1  -1  1  0   0  1  0
                       1  0  0   0  0  1   0  1  0      -1  0  0   0  0 -1   0 -1  0
                       0  1 -1   0  0 -1   1  0 -1       0 -1  1   0  0  1  -1  0  1
                      -1  0  1  -1  1  0  -1  0  0       1  0 -1   1 -1  0   1  0  0
                       0 -1  0   1 -1  0   0 -1  1       0  1  0  -1  1  0   0  1 -1
                       1  0 -1   0  0 -1   0  1 -1      -1  0  1   0  0  1   0 -1  1
                       0  1  0   0  0  1   1  0  0       0 -1  0   0  0 -1  -1  0  0
                       1  0 -1   0  1 -1   0  0 -1      -1  0  1   0 -1  1   0  0  1
                       0 -1  0   0 -1  1   1 -1  0       0  1  0   0  1 -1  -1  1  0
                      -1  0  1  -1  0  0  -1  1  0       1  0 -1   1  0  0   1 -1  0
                       0  1  0   1  0  0   0  0  1       0 -1  0  -1  0  0   0  0 -1
                       0  0 -1   0  1 -1   1  0 -1       0  0  1   0 -1  1  -1  0  1
                       1 -1  0   0 -1  1   0 -1  0      -1  1  0   0  1 -1   0  1  0
                       0  0  1   1  0  0   0  1  0       0  0 -1  -1  0  0   0 -1  0
                      -1  1  0  -1  0  0  -1  0  1       1 -1  0   1  0  0   1  0 -1
                       0  0  1   0  1  0   1  0  0       0  0 -1   0 -1  0  -1  0  0
                       1 -1  0   0 -1  0   0 -1  1      -1  1  0   0  1  0   0  1 -1
                       0  0 -1   1  0 -1   0  1 -1       0  0  1  -1  0  1   0 -1  1
                      -1  1  0  -1  0  1  -1  0  0       1 -1  0   1  0 -1   1  0  0
            tnons      0.0000000  0.0000000  0.0000000     0.2500000  0.2500000  0.2500000
                       0.0000000  0.0000000  0.0000000     0.2500000  0.2500000  0.2500000
                       0.0000000  0.0000000  0.0000000     0.2500000  0.2500000  0.2500000
                       0.0000000  0.0000000  0.0000000     0.2500000  0.2500000  0.2500000
                       0.0000000  0.0000000  0.0000000     0.2500000  0.2500000  0.2500000
                       0.0000000  0.0000000  0.0000000     0.2500000  0.2500000  0.2500000
                       0.0000000  0.0000000  0.0000000     0.2500000  0.2500000  0.2500000
                       0.0000000  0.0000000  0.0000000     0.2500000  0.2500000  0.2500000
                       0.0000000  0.0000000  0.0000000     0.2500000  0.2500000  0.2500000
                       0.0000000  0.0000000  0.0000000     0.2500000  0.2500000  0.2500000
                       0.0000000  0.0000000  0.0000000     0.2500000  0.2500000  0.2500000
                       0.0000000  0.0000000  0.0000000     0.2500000  0.2500000  0.2500000
                       0.0000000  0.0000000  0.0000000     0.2500000  0.2500000  0.2500000
                       0.0000000  0.0000000  0.0000000     0.2500000  0.2500000  0.2500000
                       0.0000000  0.0000000  0.0000000     0.2500000  0.2500000  0.2500000
                       0.0000000  0.0000000  0.0000000     0.2500000  0.2500000  0.2500000
                       0.0000000  0.0000000  0.0000000     0.2500000  0.2500000  0.2500000
                       0.0000000  0.0000000  0.0000000     0.2500000  0.2500000  0.2500000
                       0.0000000  0.0000000  0.0000000     0.2500000  0.2500000  0.2500000
                       0.0000000  0.0000000  0.0000000     0.2500000  0.2500000  0.2500000
                       0.0000000  0.0000000  0.0000000     0.2500000  0.2500000  0.2500000
                       0.0000000  0.0000000  0.0000000     0.2500000  0.2500000  0.2500000
                       0.0000000  0.0000000  0.0000000     0.2500000  0.2500000  0.2500000
                       0.0000000  0.0000000  0.0000000     0.2500000  0.2500000  0.2500000
           tolmxf      1.00000000E-08
           tolvrs      1.00000000E-10
            typat      1  1
              wtk        0.02778    0.02778    0.02778    0.05556    0.02778    0.02778
                         0.05556    0.02778    0.05556    0.05556    0.02778    0.02778
                         0.02778    0.05556    0.02778    0.05556    0.05556    0.05556
                         0.02778    0.02778    0.02778    0.02778    0.02778    0.05556
                         0.05556    0.00926    0.00926    0.00926
           xangst      0.0000000000E+00  0.0000000000E+00  0.0000000000E+00
                       1.3673862150E+00  1.3673862150E+00  1.3673862150E+00
            xcart      0.0000000000E+00  0.0000000000E+00  0.0000000000E+00
                       2.5839854642E+00  2.5839854642E+00  2.5839854642E+00
             xred      0.0000000000E+00  0.0000000000E+00  0.0000000000E+00
                       2.5000000000E-01  2.5000000000E-01  2.5000000000E-01
            znucl       14.00000
 
================================================================================
 
 chkinp: Checking input parameters for consistency.
 
================================================================================
== DATASET  1 ==================================================================
-   nproc =    6
 
 Exchange-correlation functional for the present dataset will be:
  GGA: Perdew-Burke-Ernzerhof functional - ixc=11
 Citation for XC functional:
  J.P.Perdew, K.Burke, M.Ernzerhof, PRL 77, 3865 (1996)
 
 Real(R)+Recip(G) space primitive vectors, cartesian coordinates (Bohr,Bohr^-1):
 R(1)=  5.1679709  5.1679709  0.0000000  G(1)=  0.0967498  0.0967498 -0.0967498
 R(2)=  0.0000000  5.1679709  5.1679709  G(2)= -0.0967498  0.0967498  0.0967498
 R(3)=  5.1679709  0.0000000  5.1679709  G(3)=  0.0967498 -0.0967498  0.0967498
 Unit cell volume ucvol=  2.7605154E+02 bohr^3
 Angles (23,13,12)=  6.00000000E+01  6.00000000E+01  6.00000000E+01 degrees
 
 getcut: wavevector=  0.0000  0.0000  0.0000  ngfft=  24  24  24
         ecut(hartree)=     13.230   => boxcut(ratio)=   2.00554
 
--- Pseudopotential description ------------------------------------------------
- pspini: atom type   1  psp file is /CECI/home/ucl/naps/jovbever/.PsP/Si/Si.psp8
- pspatm: opening atomic psp file    /CECI/home/ucl/naps/jovbever/.PsP/Si/Si.psp8
- Si    ONCVPSP-3.2.3.1  r_core=   1.60303   1.72197   1.91712
- 14.00000   4.00000    170510                znucl, zion, pspdat
    8   11    2    4       600   0.00000      pspcod,pspxc,lmax,lloc,mmax,r2well
    5.99000000000000    4.00000000000000    0.00000000000000   rchrg,fchrg,qchrg
     nproj     2     2     2
     extension_switch     1
  pspatm : epsatm=    9.34321699
         --- l  ekb(1:nproj) -->
             0    5.168965    0.829883
             1    2.571282    0.578307
             2   -2.427311   -0.488097
 pspatm: atomic psp has been read  and splines computed
 
   1.49491472E+02                                ecore*ucvol(ha*bohr**3)
--------------------------------------------------------------------------------
 
_setup2: Arith. and geom. avg. npw (full set) are     634.352     634.328
 
================================================================================
 
=== [ionmov= 2] Broyden-Fletcher-Goldfard-Shanno method (forces)            
================================================================================
 
--- Iteration: ( 1/15) Internal Cycle: (1/1)
--------------------------------------------------------------------------------
 
---SELF-CONSISTENT-FIELD CONVERGENCE--------------------------------------------
 
     iter   Etot(hartree)      deltaE(h)  residm     vres2
 ETOT  1  -8.4592392739934    -8.459E+00 1.726E-02 2.992E+00
 ETOT  2  -8.4622113171754    -2.972E-03 2.012E-03 8.857E-02
 ETOT  3  -8.4622542969250    -4.298E-05 1.484E-04 1.198E-03
 ETOT  4  -8.4622545788969    -2.820E-07 5.126E-05 7.043E-05
 ETOT  5  -8.4622545946669    -1.577E-08 3.102E-05 7.806E-07
 ETOT  6  -8.4622545947441    -7.723E-11 4.497E-05 4.685E-09
 ETOT  7  -8.4622545947448    -6.288E-13 3.019E-05 7.226E-11
 
 At SCF step    7       vres2   =  7.23E-11 < tolvrs=  1.00E-10 =>converged.
 
 Cartesian components of stress tensor (hartree/bohr^3)
  sigma(1 1)= -2.86856143E-07  sigma(3 2)=  0.00000000E+00
  sigma(2 2)= -2.86856143E-07  sigma(3 1)=  0.00000000E+00
  sigma(3 3)= -2.86856143E-07  sigma(2 1)=  0.00000000E+00
 
 Integrated electronic density in atomic spheres:
 ------------------------------------------------
 Atom  Sphere_radius  Integrated_density
    1        2.00000          1.79814802
    2        2.00000          1.79814802
 
---OUTPUT-----------------------------------------------------------------------
 
 Cartesian coordinates (xcart) [bohr]
  0.00000000000000E+00  0.00000000000000E+00  0.00000000000000E+00
  2.58398546423309E+00  2.58398546423309E+00  2.58398546423309E+00
 Reduced coordinates (xred)
  0.00000000000000E+00  0.00000000000000E+00  0.00000000000000E+00
  2.50000000000000E-01  2.50000000000000E-01  2.50000000000000E-01
 Cartesian forces (fcart) [Ha/bohr]; max,rms= 1.30256E-29 8.40801E-30 (free atoms)
  0.00000000000000E+00  1.30256403355657E-29 -6.51282016778283E-30
  0.00000000000000E+00 -1.30256403355657E-29  6.51282016778283E-30
 Reduced forces (fred)
 -6.73161305788597E-29 -3.36580652894298E-29  3.36580652894298E-29
  6.73161305788597E-29  3.36580652894298E-29 -3.36580652894298E-29
 Scale of Primitive Cell (acell) [bohr]
  1.03359418569323E+01  1.03359418569323E+01  1.03359418569323E+01
 Real space primitive translations (rprimd) [bohr]
  5.16797092846617E+00  5.16797092846617E+00  0.00000000000000E+00
  0.00000000000000E+00  5.16797092846617E+00  5.16797092846617E+00
  5.16797092846617E+00  0.00000000000000E+00  5.16797092846617E+00
 Unitary Cell Volume (ucvol) [Bohr^3]=  2.76051544595982E+02
 Angles (23,13,12)= [degrees]
  6.00000000000000E+01  6.00000000000000E+01  6.00000000000000E+01
 Lengths [Bohr]
  7.30861457698674E+00  7.30861457698674E+00  7.30861457698674E+00
 Stress tensor in cartesian coordinates (strten) [Ha/bohr^3]
 -2.86856142743888E-07  0.00000000000000E+00  0.00000000000000E+00
  0.00000000000000E+00 -2.86856142743021E-07  0.00000000000000E+00
  0.00000000000000E+00  0.00000000000000E+00 -2.86856142743888E-07
 Total energy (etotal) [Ha]= -8.46225459474476E+00
 
--- Iteration: ( 2/15) Internal Cycle: (1/1)
--------------------------------------------------------------------------------
 
---SELF-CONSISTENT-FIELD CONVERGENCE--------------------------------------------
 
     iter   Etot(hartree)      deltaE(h)  residm     vres2
 ETOT  1  -8.4622545964184    -8.462E+00 2.578E-05 2.115E-07
 ETOT  2  -8.4622545965067    -8.835E-11 1.965E-05 1.775E-08
 ETOT  3  -8.4622545965124    -5.627E-12 2.417E-05 4.525E-10
 ETOT  4  -8.4622545965124    -6.750E-14 1.381E-05 1.844E-12
 
 At SCF step    4       vres2   =  1.84E-12 < tolvrs=  1.00E-10 =>converged.
 
 Cartesian components of stress tensor (hartree/bohr^3)
  sigma(1 1)= -2.09674868E-07  sigma(3 2)=  0.00000000E+00
  sigma(2 2)= -2.09674868E-07  sigma(3 1)=  0.00000000E+00
  sigma(3 3)= -2.09674868E-07  sigma(2 1)=  0.00000000E+00
 
 Integrated electronic density in atomic spheres:
 ------------------------------------------------
 Atom  Sphere_radius  Integrated_density
    1        2.00000          1.79817080
    2        2.00000          1.79817080
 
---OUTPUT-----------------------------------------------------------------------
 
 Cartesian coordinates (xcart) [bohr]
  0.00000000000000E+00  1.30257524301139E-29 -6.51287621505697E-30
  2.58400770119618E+00  2.58400770119618E+00  2.58400770119618E+00
 Reduced coordinates (xred)
  1.89034156478386E-30  6.30113854927953E-31 -1.89034156478386E-30
  2.50000000000000E-01  2.50000000000000E-01  2.50000000000000E-01
 Cartesian forces (fcart) [Ha/bohr]; max,rms= 6.51276E-30 5.31765E-30 (free atoms)
  0.00000000000000E+00 -6.51276412099100E-30  6.51276412099100E-30
  0.00000000000000E+00  6.51276412099100E-30 -6.51276412099100E-30
 Reduced forces (fred)
  3.36580652894298E-29  0.00000000000000E+00 -3.36580652894298E-29
 -3.36580652894298E-29  0.00000000000000E+00  3.36580652894298E-29
 Scale of Primitive Cell (acell) [bohr]
  7.30867747261632E+00  7.30867747261632E+00  7.30867747261632E+00
 Real space primitive translations (rprimd) [bohr]
  5.16801540239236E+00  5.16801540239236E+00  0.00000000000000E+00
  2.39066679807358E-17  5.16801540239236E+00  5.16801540239236E+00
  5.16801540239236E+00  2.39066679807358E-17  5.16801540239236E+00
 Unitary Cell Volume (ucvol) [Bohr^3]=  2.76058671494628E+02
 Angles (23,13,12)= [degrees]
  6.00000000000000E+01  6.00000000000000E+01  6.00000000000000E+01
 Lengths [Bohr]
  7.30867747261632E+00  7.30867747261632E+00  7.30867747261632E+00
 Stress tensor in cartesian coordinates (strten) [Ha/bohr^3]
 -2.09674867568226E-07  0.00000000000000E+00  0.00000000000000E+00
  0.00000000000000E+00 -2.09674867567792E-07  0.00000000000000E+00
  0.00000000000000E+00  0.00000000000000E+00 -2.09674867568659E-07
 Total energy (etotal) [Ha]= -8.46225459651244E+00
 
 Difference of energy with previous step (new-old):
           Absolute (Ha)=-1.76767E-09
           Relative     =-2.08889E-10
 
--- Iteration: ( 3/15) Internal Cycle: (1/1)
--------------------------------------------------------------------------------
 
---SELF-CONSISTENT-FIELD CONVERGENCE--------------------------------------------
 
     iter   Etot(hartree)      deltaE(h)  residm     vres2
 ETOT  1  -8.4622545978283    -8.462E+00 9.192E-06 1.568E-06
 ETOT  2  -8.4622545984829    -6.545E-10 5.893E-06 1.318E-07
 ETOT  3  -8.4622545985241    -4.126E-11 6.922E-06 3.356E-09
 ETOT  4  -8.4622545985248    -6.537E-13 3.693E-06 1.350E-11
 
 At SCF step    4       vres2   =  1.35E-11 < tolvrs=  1.00E-10 =>converged.
 
 Cartesian components of stress tensor (hartree/bohr^3)
  sigma(1 1)=  1.05956470E-09  sigma(3 2)=  0.00000000E+00
  sigma(2 2)=  1.05956470E-09  sigma(3 1)=  0.00000000E+00
  sigma(3 3)=  1.05956470E-09  sigma(2 1)=  0.00000000E+00
 
 Integrated electronic density in atomic spheres:
 ------------------------------------------------
 Atom  Sphere_radius  Integrated_density
    1        2.00000          1.79823251
    2        2.00000          1.79823251
 
---OUTPUT-----------------------------------------------------------------------
 
 Cartesian coordinates (xcart) [bohr]
  0.00000000000000E+00 -1.11823183243532E-29  1.76953468151073E-29
  2.58406811714163E+00  2.58406811714163E+00  2.58406811714163E+00
 Reduced coordinates (xred)
 -2.79381810292635E-30  6.30113854927953E-31  2.79381810292635E-30
  2.50000000000000E-01  2.50000000000000E-01  2.50000000000000E-01
 Cartesian forces (fcart) [Ha/bohr]; max,rms= 1.62815E-30 1.62815E-30 (free atoms)
 -1.62815296286872E-30 -1.62815296286872E-30 -1.62815296286872E-30
  1.62815296286872E-30  1.62815296286872E-30  1.62815296286872E-30
 Reduced forces (fred)
  1.68290326447149E-29  1.68290326447149E-29  1.68290326447149E-29
 -1.68290326447149E-29 -1.68290326447149E-29 -1.68290326447149E-29
 Scale of Primitive Cell (acell) [bohr]
  7.30884835471521E+00  7.30884835471521E+00  7.30884835471521E+00
 Real space primitive translations (rprimd) [bohr]
  5.16813623428326E+00  5.16813623428326E+00  0.00000000000000E+00
  0.00000000000000E+00  5.16813623428326E+00  5.16813623428326E+00
  5.16813623428326E+00  0.00000000000000E+00  5.16813623428326E+00
 Unitary Cell Volume (ucvol) [Bohr^3]=  2.76078035294030E+02
 Angles (23,13,12)= [degrees]
  6.00000000000000E+01  6.00000000000000E+01  6.00000000000000E+01
 Lengths [Bohr]
  7.30884835471521E+00  7.30884835471521E+00  7.30884835471521E+00
 Stress tensor in cartesian coordinates (strten) [Ha/bohr^3]
  1.05956470420471E-09  0.00000000000000E+00  0.00000000000000E+00
  0.00000000000000E+00  1.05956470377103E-09  0.00000000000000E+00
  0.00000000000000E+00  0.00000000000000E+00  1.05956470333735E-09
 Total energy (etotal) [Ha]= -8.46225459852478E+00
 
 Difference of energy with previous step (new-old):
           Absolute (Ha)=-2.01234E-09
           Relative     =-2.37802E-10
 
--- Iteration: ( 4/15) Internal Cycle: (1/1)
--------------------------------------------------------------------------------
 
---SELF-CONSISTENT-FIELD CONVERGENCE--------------------------------------------
 
     iter   Etot(hartree)      deltaE(h)  residm     vres2
 ETOT  1  -8.4622545985248    -8.462E+00 2.281E-06 4.122E-11
 
 At SCF step    1       vres2   =  4.12E-11 < tolvrs=  1.00E-10 =>converged.
 
 Cartesian components of stress tensor (hartree/bohr^3)
  sigma(1 1)= -7.13505466E-10  sigma(3 2)=  0.00000000E+00
  sigma(2 2)= -7.13505464E-10  sigma(3 1)=  0.00000000E+00
  sigma(3 3)= -7.13505466E-10  sigma(2 1)=  0.00000000E+00
 
 Integrated electronic density in atomic spheres:
 ------------------------------------------------
 Atom  Sphere_radius  Integrated_density
    1        2.00000          1.79823233
    2        2.00000          1.79823233
 
---OUTPUT-----------------------------------------------------------------------
 
 Cartesian coordinates (xcart) [bohr]
 -1.62006954602937E-30 -1.27134088265937E-29  1.59862974595992E-29
  2.58406781335136E+00  2.58406781335136E+00  2.58406781335136E+00
 Reduced coordinates (xred)
 -2.93333786322926E-30  4.73377493593046E-31  2.61986514055944E-30
  2.50000000000000E-01  2.50000000000000E-01  2.50000000000000E-01
 Cartesian forces (fcart) [Ha/bohr]; max,rms= 4.88446E-30 4.09743E-30 (free atoms)
 -1.62815315427895E-30 -4.88445946283686E-30  4.88445946283686E-30
  1.62815315427895E-30  4.88445946283686E-30 -4.88445946283686E-30
 Reduced forces (fred)
  3.36580652894298E-29  0.00000000000000E+00 -1.68290326447149E-29
 -3.36580652894298E-29  0.00000000000000E+00  1.68290326447149E-29
 Scale of Primitive Cell (acell) [bohr]
  7.30884749546656E+00  7.30884749546656E+00  7.30884749546656E+00
 Real space primitive translations (rprimd) [bohr]
  5.16813562670272E+00  5.16813562670272E+00  0.00000000000000E+00
 -2.39066679807358E-17  5.16813562670272E+00  5.16813562670272E+00
  5.16813562670272E+00 -2.39066679807358E-17  5.16813562670272E+00
 Unitary Cell Volume (ucvol) [Bohr^3]=  2.76077937924524E+02
 Angles (23,13,12)= [degrees]
  6.00000000000000E+01  6.00000000000000E+01  6.00000000000000E+01
 Lengths [Bohr]
  7.30884749546656E+00  7.30884749546656E+00  7.30884749546656E+00
 Stress tensor in cartesian coordinates (strten) [Ha/bohr^3]
 -7.13505466081593E-10  0.00000000000000E+00  0.00000000000000E+00
  0.00000000000000E+00 -7.13505464346870E-10  0.00000000000000E+00
  0.00000000000000E+00  0.00000000000000E+00 -7.13505465647912E-10
 Total energy (etotal) [Ha]= -8.46225459852480E+00
 
 Difference of energy with previous step (new-old):
           Absolute (Ha)=-2.30926E-14
           Relative     =-2.72890E-15
 
--- Iteration: ( 5/15) Internal Cycle: (1/1)
--------------------------------------------------------------------------------
 
---SELF-CONSISTENT-FIELD CONVERGENCE--------------------------------------------
 
     iter   Etot(hartree)      deltaE(h)  residm     vres2
 ETOT  1  -8.4622545985248    -8.462E+00 1.397E-06 1.909E-11
 
 At SCF step    1       vres2   =  1.91E-11 < tolvrs=  1.00E-10 =>converged.
 
 Cartesian components of stress tensor (hartree/bohr^3)
  sigma(1 1)=  7.88043387E-10  sigma(3 2)=  0.00000000E+00
  sigma(2 2)=  7.88043388E-10  sigma(3 1)=  0.00000000E+00
  sigma(3 3)=  7.88043388E-10  sigma(2 1)=  0.00000000E+00
 
 Integrated electronic density in atomic spheres:
 ------------------------------------------------
 Atom  Sphere_radius  Integrated_density
    1        2.00000          1.79823226
    2        2.00000          1.79823226
 
---OUTPUT-----------------------------------------------------------------------
 
 Cartesian coordinates (xcart) [bohr]
 -2.59639062384586E-30 -1.56715887594166E-29  1.89378881372505E-29
  2.58406793560031E+00  2.58406793560031E+00  2.58406793560031E+00
 Reduced coordinates (xred)
 -3.59954425035942E-30  5.67195807907211E-31  3.09715989194613E-30
  2.50000000000000E-01  2.50000000000000E-01  2.50000000000000E-01
 Cartesian forces (fcart) [Ha/bohr]; max,rms= 1.62815E-30 1.62815E-30 (free atoms)
 -1.62815307725310E-30  1.62815307725310E-30  1.62815307725311E-30
  1.62815307725310E-30 -1.62815307725311E-30 -1.62815307725310E-30
 Reduced forces (fred)
  2.80259692864963E-45 -1.68290326447149E-29 -1.40129846432482E-45
  1.40129846432482E-45  1.68290326447149E-29 -2.80259692864963E-45
 Scale of Primitive Cell (acell) [bohr]
  7.30884784123882E+00  7.30884784123882E+00  7.30884784123882E+00
 Real space primitive translations (rprimd) [bohr]
  5.16813587120063E+00  5.16813587120063E+00  0.00000000000000E+00
  0.00000000000000E+00  5.16813587120063E+00  5.16813587120063E+00
  5.16813587120063E+00  0.00000000000000E+00  5.16813587120063E+00
 Unitary Cell Volume (ucvol) [Bohr^3]=  2.76077977107212E+02
 Angles (23,13,12)= [degrees]
  6.00000000000000E+01  6.00000000000000E+01  6.00000000000000E+01
 Lengths [Bohr]
  7.30884784123882E+00  7.30884784123882E+00  7.30884784123882E+00
 Stress tensor in cartesian coordinates (strten) [Ha/bohr^3]
  7.88043387055931E-10  0.00000000000000E+00  0.00000000000000E+00
  0.00000000000000E+00  7.88043388356974E-10  0.00000000000000E+00
  0.00000000000000E+00  0.00000000000000E+00  7.88043387923293E-10
 Total energy (etotal) [Ha]= -8.46225459852478E+00
 
 Difference of energy with previous step (new-old):
           Absolute (Ha)= 2.48690E-14
           Relative     = 2.93881E-15
 
--- Iteration: ( 6/15) Internal Cycle: (1/1)
--------------------------------------------------------------------------------
 
---SELF-CONSISTENT-FIELD CONVERGENCE--------------------------------------------
 
     iter   Etot(hartree)      deltaE(h)  residm     vres2
 ETOT  1  -8.4622545985248    -8.462E+00 8.505E-07 7.226E-12
 
 At SCF step    1       vres2   =  7.23E-12 < tolvrs=  1.00E-10 =>converged.
 
 Cartesian components of stress tensor (hartree/bohr^3)
  sigma(1 1)= -1.93662030E-10  sigma(3 2)=  0.00000000E+00
  sigma(2 2)= -1.93662030E-10  sigma(3 1)=  0.00000000E+00
  sigma(3 3)= -1.93662030E-10  sigma(2 1)=  0.00000000E+00
 
 Integrated electronic density in atomic spheres:
 ------------------------------------------------
 Atom  Sphere_radius  Integrated_density
    1        2.00000          1.79823232
    2        2.00000          1.79823232
 
---OUTPUT-----------------------------------------------------------------------
 
 Cartesian coordinates (xcart) [bohr]
 -3.71225438033366E-30 -1.59089884055715E-29  2.07261750107278E-29
  2.58406787144157E+00  2.58406787144157E+00  2.58406787144157E+00
 Reduced coordinates (xred)
 -3.90347891424814E-30  8.25195139004962E-31  3.18518230498325E-30
  2.50000000000000E-01  2.50000000000000E-01  2.50000000000000E-01
 Cartesian forces (fcart) [Ha/bohr]; max,rms= 4.88446E-30 3.11768E-30 (free atoms)
 -1.62815311767784E-30  4.88445935303352E-30 -1.62815311767784E-30
  1.62815311767784E-30 -4.88445935303352E-30  1.62815311767784E-30
 Reduced forces (fred)
 -1.68290326447149E-29 -1.68290326447149E-29  1.68290326447149E-29
  1.68290326447149E-29  1.68290326447149E-29 -1.68290326447149E-29
 Scale of Primitive Cell (acell) [bohr]
  7.30884765977048E+00  7.30884765977048E+00  7.30884765977048E+00
 Real space primitive translations (rprimd) [bohr]
  5.16813574288314E+00  5.16813574288314E+00  0.00000000000000E+00
  0.00000000000000E+00  5.16813574288314E+00  5.16813574288314E+00
  5.16813574288314E+00  0.00000000000000E+00  5.16813574288314E+00
 Unitary Cell Volume (ucvol) [Bohr^3]=  2.76077956543338E+02
 Angles (23,13,12)= [degrees]
  6.00000000000000E+01  6.00000000000000E+01  6.00000000000000E+01
 Lengths [Bohr]
  7.30884765977048E+00  7.30884765977048E+00  7.30884765977048E+00
 Stress tensor in cartesian coordinates (strten) [Ha/bohr^3]
 -1.93662030422564E-10  0.00000000000000E+00  0.00000000000000E+00
  0.00000000000000E+00 -1.93662029555203E-10  0.00000000000000E+00
  0.00000000000000E+00  0.00000000000000E+00 -1.93662029555203E-10
 Total energy (etotal) [Ha]= -8.46225459852483E+00
 
 Difference of energy with previous step (new-old):
           Absolute (Ha)=-5.15143E-14
           Relative     =-6.08754E-15
 
--- Iteration: ( 7/15) Internal Cycle: (1/1)
--------------------------------------------------------------------------------
 
---SELF-CONSISTENT-FIELD CONVERGENCE--------------------------------------------
 
     iter   Etot(hartree)      deltaE(h)  residm     vres2
 ETOT  1  -8.4622545985248    -8.462E+00 5.163E-07 1.256E-12
 
 At SCF step    1       vres2   =  1.26E-12 < tolvrs=  1.00E-10 =>converged.
 
 Cartesian components of stress tensor (hartree/bohr^3)
  sigma(1 1)=  2.69285586E-10  sigma(3 2)=  0.00000000E+00
  sigma(2 2)=  2.69285587E-10  sigma(3 1)=  0.00000000E+00
  sigma(3 3)=  2.69285587E-10  sigma(2 1)=  0.00000000E+00
 
 Integrated electronic density in atomic spheres:
 ------------------------------------------------
 Atom  Sphere_radius  Integrated_density
    1        2.00000          1.79823227
    2        2.00000          1.79823227
 
---OUTPUT-----------------------------------------------------------------------
 
 Cartesian coordinates (xcart) [bohr]
 -5.12038379142849E-30 -1.16198012042782E-29  1.93875566790587E-29
  2.58406788409823E+00  2.58406788409823E+00  2.58406788409823E+00
 Reduced coordinates (xred)
 -3.49523922117985E-30  1.24688474183667E-30  2.50447891202966E-30
  2.50000000000000E-01  2.50000000000000E-01  2.50000000000000E-01
 Cartesian forces (fcart) [Ha/bohr]; max,rms= 1.30252E-29 1.01243E-29 (free atoms)
 -6.51261243881285E-30  1.30252248776257E-29 -9.76891865821927E-30
  6.51261243881285E-30 -1.30252248776257E-29  9.76891865821927E-30
 Reduced forces (fred)
 -3.36580652894298E-29 -1.68290326447149E-29  8.41451632235746E-29
  3.36580652894298E-29  1.68290326447149E-29 -8.41451632235746E-29
 Scale of Primitive Cell (acell) [bohr]
  7.30884769556893E+00  7.30884769556893E+00  7.30884769556893E+00
 Real space primitive translations (rprimd) [bohr]
  5.16813576819646E+00  5.16813576819646E+00  0.00000000000000E+00
  0.00000000000000E+00  5.16813576819646E+00  5.16813576819646E+00
  5.16813576819646E+00  0.00000000000000E+00  5.16813576819646E+00
 Unitary Cell Volume (ucvol) [Bohr^3]=  2.76077960599994E+02
 Angles (23,13,12)= [degrees]
  6.00000000000000E+01  6.00000000000000E+01  6.00000000000000E+01
 Lengths [Bohr]
  7.30884769556893E+00  7.30884769556893E+00  7.30884769556893E+00
 Stress tensor in cartesian coordinates (strten) [Ha/bohr^3]
  2.69285586017298E-10  0.00000000000000E+00  0.00000000000000E+00
  0.00000000000000E+00  2.69285586884660E-10  0.00000000000000E+00
  0.00000000000000E+00  0.00000000000000E+00  2.69285586884660E-10
 Total energy (etotal) [Ha]= -8.46225459852483E+00
 
 Difference of energy with previous step (new-old):
           Absolute (Ha)=-1.77636E-15
           Relative     =-2.09915E-16
 
--- Iteration: ( 8/15) Internal Cycle: (1/1)
--------------------------------------------------------------------------------
 
---SELF-CONSISTENT-FIELD CONVERGENCE--------------------------------------------
 
     iter   Etot(hartree)      deltaE(h)  residm     vres2
 ETOT  1  -8.4622545985248    -8.462E+00 3.129E-07 2.679E-13
 
 At SCF step    1       vres2   =  2.68E-13 < tolvrs=  1.00E-10 =>converged.
 
 Cartesian components of stress tensor (hartree/bohr^3)
  sigma(1 1)=  5.77040291E-11  sigma(3 2)=  0.00000000E+00
  sigma(2 2)=  5.77040278E-11  sigma(3 1)=  0.00000000E+00
  sigma(3 3)=  5.77040291E-11  sigma(2 1)=  0.00000000E+00
 
 Integrated electronic density in atomic spheres:
 ------------------------------------------------
 Atom  Sphere_radius  Integrated_density
    1        2.00000          1.79823229
    2        2.00000          1.79823229
 
---OUTPUT-----------------------------------------------------------------------
 
 Cartesian coordinates (xcart) [bohr]
 -7.97298162683844E-30 -5.82425459741648E-30  1.51322484638898E-29
  2.58406787673615E+00  2.58406787673615E+00  2.58406787673615E+00
 Reduced coordinates (xred)
 -2.79883173238125E-30  1.67187708659755E-30  1.25611265394341E-30
  2.50000000000000E-01  2.50000000000000E-01  2.50000000000000E-01
 Cartesian forces (fcart) [Ha/bohr]; max,rms= 3.25631E-30 3.25631E-30 (free atoms)
 -3.25630622868372E-30  3.25630622868372E-30  3.25630622868372E-30
  3.25630622868372E-30 -3.25630622868372E-30 -3.25630622868372E-30
 Reduced forces (fred)
  0.00000000000000E+00 -3.36580652894298E-29  0.00000000000000E+00
  0.00000000000000E+00  3.36580652894298E-29  0.00000000000000E+00
 Scale of Primitive Cell (acell) [bohr]
  7.30884767474583E+00  7.30884767474583E+00  7.30884767474583E+00
 Real space primitive translations (rprimd) [bohr]
  5.16813575347230E+00  5.16813575347230E+00  0.00000000000000E+00
  0.00000000000000E+00  5.16813575347230E+00  5.16813575347230E+00
  5.16813575347230E+00  0.00000000000000E+00  5.16813575347230E+00
 Unitary Cell Volume (ucvol) [Bohr^3]=  2.76077958240334E+02
 Angles (23,13,12)= [degrees]
  6.00000000000000E+01  6.00000000000000E+01  6.00000000000000E+01
 Lengths [Bohr]
  7.30884767474583E+00  7.30884767474583E+00  7.30884767474583E+00
 Stress tensor in cartesian coordinates (strten) [Ha/bohr^3]
  5.77040290550279E-11  0.00000000000000E+00  0.00000000000000E+00
  0.00000000000000E+00  5.77040277539853E-11  0.00000000000000E+00
  0.00000000000000E+00  0.00000000000000E+00  5.77040290550279E-11
 Total energy (etotal) [Ha]= -8.46225459852485E+00
 
 Difference of energy with previous step (new-old):
           Absolute (Ha)=-1.59872E-14
           Relative     =-1.88924E-15
 
 At Broyd/MD step   8, gradients are converged : 
  max grad (force/stress) = 5.7704E-09 < tolmxf= 1.0000E-08 ha/bohr (free atoms)
 
================================================================================
 
 ----iterations are completed or convergence reached----
 
 Mean square residual over all n,k,spin=   18.667E-10; max=  31.286E-08
 reduced coordinates (array xred) for    2 atoms
      -0.000000000000      0.000000000000      0.000000000000
       0.250000000000      0.250000000000      0.250000000000
 rms dE/dt=  1.9432E-29; max dE/dt=  3.3658E-29; dE/dt below (all hartree)
    1       0.000000000000     -0.000000000000      0.000000000000
    2       0.000000000000      0.000000000000      0.000000000000
 
 cartesian coordinates (angstrom) at end:
    1     -0.00000000000000    -0.00000000000000     0.00000000000000
    2      1.36742982581832     1.36742982581832     1.36742982581832
 
 cartesian forces (hartree/bohr) at end:
    1     -0.00000000000000     0.00000000000000     0.00000000000000
    2      0.00000000000000    -0.00000000000000    -0.00000000000000
 frms,max,avg= 3.2563062E-30 3.2563062E-30   0.000E+00  0.000E+00  0.000E+00 h/b
 
 cartesian forces (eV/Angstrom) at end:
    1     -0.00000000000000     0.00000000000000     0.00000000000000
    2      0.00000000000000    -0.00000000000000    -0.00000000000000
 frms,max,avg= 1.6744598E-28 1.6744598E-28   0.000E+00  0.000E+00  0.000E+00 e/A
 length scales=  7.308847674746  7.308847674746  7.308847674746 bohr
              =  3.867675610532  3.867675610532  3.867675610532 angstroms
 prteigrs : about to open file opto_EIG
 Fermi (or HOMO) energy (hartree) =   0.14796   Average Vxc (hartree)=  -0.33844
 Eigenvalues (hartree) for nkpt=  28  k points:
 kpt#   1, nband=  6, wtk=  0.02778, kpt= -0.0833 -0.1667  0.0000 (reduced coord)
  -0.26926    0.08221    0.12457    0.13111    0.23774    0.26888
 prteigrs : prtvol=0 or 1, do not print more k-points.
 
 
--------------------------------------------------------------------------------
 Components of total free energy (in Hartree) :
 
    Kinetic energy  =  3.04097955069390E+00
    Hartree energy  =  5.56854764245069E-01
    XC energy       = -3.07978346070187E+00
    Ewald energy    = -8.33847762690464E+00
    PspCore energy  =  5.41482821688235E-01
    Loc. psp. energy= -2.33172735375970E+00
    NL   psp  energy=  1.14841670621416E+00
    >>>>>>>>> Etotal= -8.46225459852485E+00
 
 Other information on the energy :
    Total energy(eV)= -2.30269658201510E+02 ; Band energy (Ha)=  -2.4712610773E-01
--------------------------------------------------------------------------------
 
 
 
 Cartesian components of stress tensor (hartree/bohr^3)
  sigma(1 1)=  5.77040291E-11  sigma(3 2)=  0.00000000E+00
  sigma(2 2)=  5.77040278E-11  sigma(3 1)=  0.00000000E+00
  sigma(3 3)=  5.77040291E-11  sigma(2 1)=  0.00000000E+00
 
-Cartesian components of stress tensor (GPa)         [Pressure= -1.6977E-06 GPa]
- sigma(1 1)=  1.69771086E-06  sigma(3 2)=  0.00000000E+00
- sigma(2 2)=  1.69771082E-06  sigma(3 1)=  0.00000000E+00
- sigma(3 3)=  1.69771086E-06  sigma(2 1)=  0.00000000E+00
 
== END DATASET(S) ==============================================================
================================================================================
  
 -outvars: echo values of variables after computation  --------
            acell      7.3088476747E+00  7.3088476747E+00  7.3088476747E+00 Bohr
              amu      2.80855000E+01
          dilatmx      1.05000000E+00
             ecut      1.20000000E+01 Hartree
           ecutsm      5.00000000E-01 Hartree
           etotal     -8.4622545985E+00
            fcart     -3.2563062287E-30  3.2563062287E-30  3.2563062287E-30
                       3.2563062287E-30 -3.2563062287E-30 -3.2563062287E-30
-          fftalg         312
           ionmov           2
              ixc          11
              kpt     -8.33333333E-02 -1.66666667E-01  0.00000000E+00
                      -8.33333333E-02 -3.33333333E-01  0.00000000E+00
                      -1.66666667E-01 -2.50000000E-01  0.00000000E+00
                      -8.33333333E-02 -2.50000000E-01  8.33333333E-02
                      -8.33333333E-02  5.00000000E-01  0.00000000E+00
                      -1.66666667E-01 -4.16666667E-01  0.00000000E+00
                      -8.33333333E-02 -4.16666667E-01  8.33333333E-02
                      -2.50000000E-01 -3.33333333E-01  0.00000000E+00
                      -1.66666667E-01 -3.33333333E-01  8.33333333E-02
                      -8.33333333E-02 -3.33333333E-01  1.66666667E-01
                      -8.33333333E-02  3.33333333E-01  0.00000000E+00
                      -1.66666667E-01  4.16666667E-01  0.00000000E+00
                      -2.50000000E-01  5.00000000E-01  0.00000000E+00
                      -1.66666667E-01  5.00000000E-01  8.33333333E-02
                      -3.33333333E-01 -4.16666667E-01  0.00000000E+00
                      -2.50000000E-01 -4.16666667E-01  8.33333333E-02
                      -1.66666667E-01 -4.16666667E-01  1.66666667E-01
                      -8.33333333E-02 -4.16666667E-01  2.50000000E-01
                      -8.33333333E-02  1.66666667E-01  0.00000000E+00
                      -1.66666667E-01  2.50000000E-01  0.00000000E+00
                      -2.50000000E-01  3.33333333E-01  0.00000000E+00
                      -3.33333333E-01  4.16666667E-01  0.00000000E+00
                      -4.16666667E-01  5.00000000E-01  0.00000000E+00
                      -3.33333333E-01  5.00000000E-01  8.33333333E-02
                      -2.50000000E-01  5.00000000E-01  1.66666667E-01
                      -8.33333333E-02  0.00000000E+00  0.00000000E+00
                      -2.50000000E-01  0.00000000E+00  0.00000000E+00
                      -4.16666667E-01  0.00000000E+00  0.00000000E+00
         kptrlatt        6   -6    6     -6    6    6     -6   -6    6
          kptrlen      6.20156511E+01
P           mkmem           5
            natom           2
            nband           6
            ngfft          24      24      24
             nkpt          28
             nsym          48
            ntime          15
           ntypat           1
              occ      2.000000  2.000000  2.000000  2.000000  0.000000  0.000000
          optcell           2
            rprim      7.0710678119E-01  7.0710678119E-01  0.0000000000E+00
                       0.0000000000E+00  7.0710678119E-01  7.0710678119E-01
                       7.0710678119E-01  0.0000000000E+00  7.0710678119E-01
           shiftk      5.00000000E-01  5.00000000E-01  5.00000000E-01
          spgroup         227
           strten      5.7704029055E-11  5.7704027754E-11  5.7704029055E-11
                       0.0000000000E+00  0.0000000000E+00  0.0000000000E+00
           symrel      1  0  0   0  1  0   0  0  1      -1  0  0   0 -1  0   0  0 -1
                       0 -1  1   0 -1  0   1 -1  0       0  1 -1   0  1  0  -1  1  0
                      -1  0  0  -1  0  1  -1  1  0       1  0  0   1  0 -1   1 -1  0
                       0  1 -1   1  0 -1   0  0 -1       0 -1  1  -1  0  1   0  0  1
                      -1  0  0  -1  1  0  -1  0  1       1  0  0   1 -1  0   1  0 -1
                       0 -1  1   1 -1  0   0 -1  0       0  1 -1  -1  1  0   0  1  0
                       1  0  0   0  0  1   0  1  0      -1  0  0   0  0 -1   0 -1  0
                       0  1 -1   0  0 -1   1  0 -1       0 -1  1   0  0  1  -1  0  1
                      -1  0  1  -1  1  0  -1  0  0       1  0 -1   1 -1  0   1  0  0
                       0 -1  0   1 -1  0   0 -1  1       0  1  0  -1  1  0   0  1 -1
                       1  0 -1   0  0 -1   0  1 -1      -1  0  1   0  0  1   0 -1  1
                       0  1  0   0  0  1   1  0  0       0 -1  0   0  0 -1  -1  0  0
                       1  0 -1   0  1 -1   0  0 -1      -1  0  1   0 -1  1   0  0  1
                       0 -1  0   0 -1  1   1 -1  0       0  1  0   0  1 -1  -1  1  0
                      -1  0  1  -1  0  0  -1  1  0       1  0 -1   1  0  0   1 -1  0
                       0  1  0   1  0  0   0  0  1       0 -1  0  -1  0  0   0  0 -1
                       0  0 -1   0  1 -1   1  0 -1       0  0  1   0 -1  1  -1  0  1
                       1 -1  0   0 -1  1   0 -1  0      -1  1  0   0  1 -1   0  1  0
                       0  0  1   1  0  0   0  1  0       0  0 -1  -1  0  0   0 -1  0
                      -1  1  0  -1  0  0  -1  0  1       1 -1  0   1  0  0   1  0 -1
                       0  0  1   0  1  0   1  0  0       0  0 -1   0 -1  0  -1  0  0
                       1 -1  0   0 -1  0   0 -1  1      -1  1  0   0  1  0   0  1 -1
                       0  0 -1   1  0 -1   0  1 -1       0  0  1  -1  0  1   0 -1  1
                      -1  1  0  -1  0  1  -1  0  0       1 -1  0   1  0 -1   1  0  0
            tnons      0.0000000  0.0000000  0.0000000     0.2500000  0.2500000  0.2500000
                       0.0000000  0.0000000  0.0000000     0.2500000  0.2500000  0.2500000
                       0.0000000  0.0000000  0.0000000     0.2500000  0.2500000  0.2500000
                       0.0000000  0.0000000  0.0000000     0.2500000  0.2500000  0.2500000
                       0.0000000  0.0000000  0.0000000     0.2500000  0.2500000  0.2500000
                       0.0000000  0.0000000  0.0000000     0.2500000  0.2500000  0.2500000
                       0.0000000  0.0000000  0.0000000     0.2500000  0.2500000  0.2500000
                       0.0000000  0.0000000  0.0000000     0.2500000  0.2500000  0.2500000
                       0.0000000  0.0000000  0.0000000     0.2500000  0.2500000  0.2500000
                       0.0000000  0.0000000  0.0000000     0.2500000  0.2500000  0.2500000
                       0.0000000  0.0000000  0.0000000     0.2500000  0.2500000  0.2500000
                       0.0000000  0.0000000  0.0000000     0.2500000  0.2500000  0.2500000
                       0.0000000  0.0000000  0.0000000     0.2500000  0.2500000  0.2500000
                       0.0000000  0.0000000  0.0000000     0.2500000  0.2500000  0.2500000
                       0.0000000  0.0000000  0.0000000     0.2500000  0.2500000  0.2500000
                       0.0000000  0.0000000  0.0000000     0.2500000  0.2500000  0.2500000
                       0.0000000  0.0000000  0.0000000     0.2500000  0.2500000  0.2500000
                       0.0000000  0.0000000  0.0000000     0.2500000  0.2500000  0.2500000
                       0.0000000  0.0000000  0.0000000     0.2500000  0.2500000  0.2500000
                       0.0000000  0.0000000  0.0000000     0.2500000  0.2500000  0.2500000
                       0.0000000  0.0000000  0.0000000     0.2500000  0.2500000  0.2500000
                       0.0000000  0.0000000  0.0000000     0.2500000  0.2500000  0.2500000
                       0.0000000  0.0000000  0.0000000     0.2500000  0.2500000  0.2500000
                       0.0000000  0.0000000  0.0000000     0.2500000  0.2500000  0.2500000
           tolmxf      1.00000000E-08
           tolvrs      1.00000000E-10
            typat      1  1
              wtk        0.02778    0.02778    0.02778    0.05556    0.02778    0.02778
                         0.05556    0.02778    0.05556    0.05556    0.02778    0.02778
                         0.02778    0.05556    0.02778    0.05556    0.05556    0.05556
                         0.02778    0.02778    0.02778    0.02778    0.02778    0.05556
                         0.05556    0.00926    0.00926    0.00926
           xangst     -4.2191201614E-30 -3.0820627900E-30  8.0076410018E-30
                       1.3674298258E+00  1.3674298258E+00  1.3674298258E+00
            xcart     -7.9729816268E-30 -5.8242545974E-30  1.5132248464E-29
                       2.5840678767E+00  2.5840678767E+00  2.5840678767E+00
             xred     -2.7988317324E-30  1.6718770866E-30  1.2561126539E-30
                       2.5000000000E-01  2.5000000000E-01  2.5000000000E-01
            znucl       14.00000
 
================================================================================


- Timing analysis has been suppressed with timopt=0



================================================================================

 Suggested references for the acknowledgment of ABINIT usage.

 The users of ABINIT have little formal obligations with respect to the ABINIT group
 (those specified in the GNU General Public License, http://www.gnu.org/copyleft/gpl.txt).
 However, it is common practice in the scientific literature,
 to acknowledge the efforts of people that have made the research possible.
 In this spirit, please find below suggested citations of work written by ABINIT developers,
 corresponding to implementations inside of ABINIT that you have used in the present run.
 Note also that it will be of great value to readers of publications presenting these results,
 to read papers enabling them to understand the theoretical formalism and details
 of the ABINIT implementation.
 For information on why they are suggested, see also https://docs.abinit.org/theory/acknowledgments.
-
- [1] Recent developments in the ABINIT software package.
- Computer Phys. Comm. 205, 106 (2016).
- X.Gonze, F.Jollet, F.Abreu Araujo, D.Adams, B.Amadon, T.Applencourt,
- C.Audouze, J.-M.Beuken, J.Bieder, A.Bokhanchuk, E.Bousquet, F.Bruneval
- D.Caliste, M.Cote, F.Dahm, F.Da Pieve, M.Delaveau, M.Di Gennaro,
- B.Dorado, C.Espejo, G.Geneste, L.Genovese, A.Gerossier, M.Giantomassi,
- Y.Gillet, D.R.Hamann, L.He, G.Jomard, J.Laflamme Janssen, S.Le Roux,
- A.Levitt, A.Lherbier, F.Liu, I.Lukacevic, A.Martin, C.Martins,
- M.J.T.Oliveira, S.Ponce, Y.Pouillon, T.Rangel, G.-M.Rignanese,
- A.H.Romero, B.Rousseau, O.Rubel, A.A.Shukri, M.Stankovski, M.Torrent,
- M.J.Van Setten, B.Van Troeye, M.J.Verstraete, D.Waroquier, J.Wiktor,
- B.Xu, A.Zhou, J.W.Zwanziger.
- Comment: the fourth generic paper describing the ABINIT project.
- Note that a version of this paper, that is not formatted for Computer Phys. Comm. 
- is available at https://www.abinit.org/about/ABINIT16.pdf .
- The licence allows the authors to put it on the Web.
- DOI and bibtex: see https://docs.abinit.org/theory/bibliography/#gonze2016
-
- [2] Optimized norm-conserving Vanderbilt pseudopotentials.
- D.R. Hamann, Phys. Rev. B 88, 085117 (2013).
- Comment: Some pseudopotential generated using the ONCVPSP code were used.
- DOI and bibtex: see https://docs.abinit.org/theory/bibliography/#hamann2013
-
- [3] ABINIT: First-principles approach of materials and nanosystem properties.
- Computer Phys. Comm. 180, 2582-2615 (2009).
- X. Gonze, B. Amadon, P.-M. Anglade, J.-M. Beuken, F. Bottin, P. Boulanger, F. Bruneval,
- D. Caliste, R. Caracas, M. Cote, T. Deutsch, L. Genovese, Ph. Ghosez, M. Giantomassi
- S. Goedecker, D.R. Hamann, P. Hermet, F. Jollet, G. Jomard, S. Leroux, M. Mancini, S. Mazevet,
- M.J.T. Oliveira, G. Onida, Y. Pouillon, T. Rangel, G.-M. Rignanese, D. Sangalli, R. Shaltaf,
- M. Torrent, M.J. Verstraete, G. Zerah, J.W. Zwanziger
- Comment: the third generic paper describing the ABINIT project.
- Note that a version of this paper, that is not formatted for Computer Phys. Comm. 
- is available at https://www.abinit.org/about/ABINIT_CPC_v10.pdf .
- The licence allows the authors to put it on the Web.
- DOI and bibtex: see https://docs.abinit.org/theory/bibliography/#gonze2009
-
- [4] A brief introduction to the ABINIT software package.
- Z. Kristallogr. 220, 558-562 (2005).
- X. Gonze, G.-M. Rignanese, M. Verstraete, J.-M. Beuken, Y. Pouillon, R. Caracas, F. Jollet,
- M. Torrent, G. Zerah, M. Mikami, Ph. Ghosez, M. Veithen, J.-Y. Raty, V. Olevano, F. Bruneval,
- L. Reining, R. Godby, G. Onida, D.R. Hamann, and D.C. Allan.
- Comment: the second generic paper describing the ABINIT project. Note that this paper
- should be cited especially if you are using the GW part of ABINIT, as several authors
- of this part are not in the list of authors of the first or third paper.
- The .pdf of the latter paper is available at https://www.abinit.org/about/zfk_0505-06_558-562.pdf.
- Note that it should not redistributed (Copyright by Oldenburg Wissenshaftverlag,
- the licence allows the authors to put it on the Web).
- DOI and bibtex: see https://docs.abinit.org/theory/bibliography/#gonze2005
-
- And optionally:
-
- [5] First-principles computation of material properties: the ABINIT software project. 
- X. Gonze, J.-M. Beuken, R. Caracas, F. Detraux, M. Fuchs, G.-M. Rignanese, L. Sindic,
- M. Verstraete, G. Zerah, F. Jollet, M. Torrent, A. Roy, M. Mikami, Ph. Ghosez, J.-Y. Raty, D.C. Allan.
- Computational Materials Science 25, 478-492 (2002). http://dx.doi.org/10.1016/S0927-0256(02)00325-7
- Comment: the original paper describing the ABINIT project.
- DOI and bibtex : see https://docs.abinit.org/theory/bibliography/#gonze2002
-
- Proc.   0 individual time (sec): cpu=          6.6  wall=         18.9
 
================================================================================
 
 Calculation completed.
.Delivered   0 WARNINGs and   0 COMMENTs to log file.
+Overall time at end (sec) : cpu=         40.2  wall=        113.3

External calculated distance:
distance  4.475736852651028