  ABINIT 8.11.13
  
  Give name for formatted input file: 
opt.in
  Give name for formatted output file:
opt.out
  Give root name for generic input files:
opti
  Give root name for generic output files:
opto
  Give root name for generic temporary files:
opt

.Version 8.11.13 of ABINIT 
.(MPI version, prepared for a x86_64_linux_intel14.0 computer) 

.Copyright (C) 1998-2019 ABINIT group . 
 ABINIT comes with ABSOLUTELY NO WARRANTY.
 It is free software, and you are welcome to redistribute it
 under certain conditions (GNU General Public License,
 see ~abinit/COPYING or http://www.gnu.org/copyleft/gpl.txt).

 ABINIT is a project of the Universite Catholique de Louvain,
 Corning Inc. and other collaborators, see ~abinit/doc/developers/contributors.txt .
 Please read https://docs.abinit.org/theory/acknowledgments for suggested
 acknowledgments of the ABINIT effort.
 For more information, see https://www.abinit.org .

.Starting date : Fri  3 Jan 2020.
- ( at 15h43 )
  
 
 ++++++++++++++++++++++++++++++++++++++++++++++++++++++++++++++++++++++++++++++
 
 === Build Information === 
  Version       : 8.11.13
  Build target  : x86_64_linux_intel14.0
  Build date    : 20191206
 
 === Compiler Suite === 
  C compiler       : intel14.0
  C++ compiler     : gnu14.0
  Fortran compiler : intel14.0
  CFLAGS           :  -g -O2
  CXXFLAGS         :  -g -O2 -mtune=native -march=native
  FCFLAGS          :  -g -extend-source -nofpscomp
  FC_LDFLAGS       :    -static-intel -static-libgcc
 
 === Optimizations === 
  Debug level        : basic
  Optimization level : standard
  Architecture       : intel_xeon
 
 === Multicore === 
  Parallel build : yes
  Parallel I/O   : yes
  openMP support : no
  GPU support    : no
 
 === Connectors / Fallbacks === 
  Connectors on : yes
  Fallbacks on  : yes
  DFT flavor    : libxc-fallback
  FFT flavor    : fftw3
  LINALG flavor : mkl
  TIMER flavor  : abinit
  TRIO flavor   : netcdf
 
 === Experimental features === 
  Exports             : no
  GW double-precision : yes
 
 ++++++++++++++++++++++++++++++++++++++++++++++++++++++++++++++++++++++++++++++
 

 ++++++++++++++++++++++++++++++++++++++++++++++++++++++++++++++++++++++++++++++
 Default optimizations:
   -O3


 Optimizations for 43_ptgroups:
   -O0


 ++++++++++++++++++++++++++++++++++++++++++++++++++++++++++++++++++++++++++++++


 ++++++++++++++++++++++++++++++++++++++++++++++++++++++++++++++++++++++++++++++
 CPP options activated during the build:

                  CC_INTEL                   CXX_GNU                  FC_INTEL
 
 HAVE_FC_ALLOCATABLE_DT...             HAVE_FC_ASYNC  HAVE_FC_COMMAND_ARGUMENT
 
        HAVE_FC_CONTIGUOUS           HAVE_FC_CPUTIME             HAVE_FC_ETIME
 
              HAVE_FC_EXIT             HAVE_FC_FLUSH             HAVE_FC_GAMMA
 
            HAVE_FC_GETENV            HAVE_FC_GETPID   HAVE_FC_IEEE_ARITHMETIC
 
   HAVE_FC_IEEE_EXCEPTIONS             HAVE_FC_IOMSG     HAVE_FC_ISO_C_BINDING
 
  HAVE_FC_ISO_FORTRAN_2008        HAVE_FC_LONG_LINES        HAVE_FC_MOVE_ALLOC
 
  HAVE_FC_ON_THE_FLY_SHAPE           HAVE_FC_PRIVATE         HAVE_FC_PROTECTED
 
           HAVE_FC_SHIFTLR         HAVE_FC_STREAM_IO            HAVE_FC_SYSTEM
 
                  HAVE_FFT            HAVE_FFT_FFTW3              HAVE_FFT_MPI
 
           HAVE_FFT_SERIAL               HAVE_GW_DPC        HAVE_LIBPAW_ABINIT
 
      HAVE_LIBTETRA_ABINIT                HAVE_LIBXC               HAVE_LINALG
 
         HAVE_LINALG_AXPBY        HAVE_LINALG_GEMM3M  HAVE_LINALG_MKL_IMATCOPY
 
   HAVE_LINALG_MKL_OMATADD  HAVE_LINALG_MKL_OMATCOPY   HAVE_LINALG_MKL_THREADS
 
        HAVE_LINALG_SERIAL                  HAVE_MPI                 HAVE_MPI2
 
       HAVE_MPI_IALLREDUCE        HAVE_MPI_IALLTOALL       HAVE_MPI_IALLTOALLV
 
           HAVE_MPI_IBCAST         HAVE_MPI_IGATHERV        HAVE_MPI_INTEGER16
 
               HAVE_MPI_IO HAVE_MPI_TYPE_CREATE_S...               HAVE_NETCDF
 
           HAVE_NETCDF_MPI                HAVE_NUMPY             HAVE_OS_LINUX
 
         HAVE_TIMER_ABINIT                  HAVE_XML              USE_MACROAVE
 
 ++++++++++++++++++++++++++++++++++++++++++++++++++++++++++++++++++++++++++++++

- input  file    -> opt.in
- output file    -> opt.out
- root for input  files -> opti
- root for output files -> opto
 
Netcdf library supports MPI-IO
-instrng: 53 lines of input have been read from file opt.in
 

 Please give name of formatted atomic psp file
 For atom type 1, psp file is /CECI/home/ucl/naps/jovbever/.PsP/Si/Si.psp8
  read the values zionpsp=  4.0 , pspcod=   8 , lmax=   2
 
 inpspheads: deduce mpsang = 3, n1xccc = 2501.

======================================================= 
invars1m : enter jdtset= 0
 
 symlatt: the Bravais lattice is cF (face-centered cubic)
  xred   is defined in input file
 ingeo: takes atomic coordinates from input array xred
 
 symlatt: the Bravais lattice is cF (face-centered cubic)
 
 symlatt: the Bravais lattice is cF (face-centered cubic)
 symspgr: spgroup= 227  Fd -3 m   (=Oh^7)
 symspgr: optical characteristics = isotropic
 For input ecut=  5.512500E+01 best grid ngfft=      27      27      27
       max ecut=  5.591999E+01
 
 ==== FFT mesh ====
  FFT mesh divisions ........................    27   27   27
  Augmented FFT divisions ...................    27   27   27
  FFT algorithm .............................   312
  FFT cache size ............................    16
 getmpw: optimal value of mpw= 814
 
 Symmetries : space group Fd -3 m (#227); Bravais cF (face-center cubic)
 
 getdim_nloc : deduce lmnmax  =  18, lnmax  =   6,
                      lmnmaxso=  18, lnmaxso=   6.
memory: analysis of memory needs
================================================================================
 Values of the parameters that define the memory need of the present run
     intxc =       0    ionmov =       2      iscf =       7    lmnmax =       6
     lnmax =       6     mgfft =      27  mpssoang =       3    mqgrid =    3001
     natom =       2  nloc_mem =       1    nspden =       1   nspinor =       1
    nsppol =       1      nsym =      48    n1xccc =    2501    ntypat =       1
    occopt =       1   xclevel =       2
-    mband =           4        mffmem =           1         mkmem =          30
       mpw =         814          nfft =       19683          nkpt =          60
================================================================================
P This job should need less than                       8.807 Mbytes of memory.
  Rough estimation (10% accuracy) of disk space for files :
_ WF disk file :      2.983 Mbytes ; DEN or POT disk file :      0.152 Mbytes.
================================================================================
 
 Biggest array : f_fftgr(disk), with      2.4047 MBytes.
 memana : allocated an array of      2.405 Mbytes, for testing purposes.
 memana: allocated       8.807Mbytes, for testing purposes. 
 The job will continue.
--------------------------------------------------------------------------------
------------- Echo of variables that govern the present computation ------------
--------------------------------------------------------------------------------
-
- outvars: echo of selected default values                                      
-   iomode0 =  0 , fftalg0 =312 , wfoptalg0 =  0
-
- outvars: echo of global parameters not present in the input file              
-  max_nthreads =    0
-
 -outvars: echo values of preprocessed input variables --------
 
 These variables are accessible in NetCDF format (opto_OUT.nc)

            acell      5.4695448600E+00  5.4695448600E+00  5.4695448600E+00 Bohr
              amu      2.80855000E+01
          dilatmx      1.05000000E+00
             ecut      5.00000000E+01 Hartree
           ecutsm      5.00000000E-01 Hartree
-          fftalg         312
           ionmov           2
              ixc          11
              kpt     -6.25000000E-02 -1.25000000E-01  0.00000000E+00
                      -6.25000000E-02 -2.50000000E-01  0.00000000E+00
                      -1.25000000E-01 -1.87500000E-01  0.00000000E+00
                      -6.25000000E-02 -1.87500000E-01  6.25000000E-02
                      -6.25000000E-02 -3.75000000E-01  0.00000000E+00
                      -1.25000000E-01 -3.12500000E-01  0.00000000E+00
                      -6.25000000E-02 -3.12500000E-01  6.25000000E-02
                      -1.87500000E-01 -2.50000000E-01  0.00000000E+00
                      -1.25000000E-01 -2.50000000E-01  6.25000000E-02
                      -6.25000000E-02 -2.50000000E-01  1.25000000E-01
                      -6.25000000E-02  5.00000000E-01  0.00000000E+00
                      -1.25000000E-01 -4.37500000E-01  0.00000000E+00
                      -6.25000000E-02 -4.37500000E-01  6.25000000E-02
                      -1.87500000E-01 -3.75000000E-01  0.00000000E+00
                      -1.25000000E-01 -3.75000000E-01  6.25000000E-02
                      -6.25000000E-02 -3.75000000E-01  1.25000000E-01
                      -2.50000000E-01 -3.12500000E-01  0.00000000E+00
                      -1.87500000E-01 -3.12500000E-01  6.25000000E-02
                      -1.25000000E-01 -3.12500000E-01  1.25000000E-01
                      -6.25000000E-02 -3.12500000E-01  1.87500000E-01
                      -6.25000000E-02  3.75000000E-01  0.00000000E+00
                      -1.25000000E-01  4.37500000E-01  0.00000000E+00
                      -1.87500000E-01  5.00000000E-01  0.00000000E+00
                      -1.25000000E-01  5.00000000E-01  6.25000000E-02
                      -2.50000000E-01 -4.37500000E-01  0.00000000E+00
                      -1.87500000E-01 -4.37500000E-01  6.25000000E-02
                      -1.25000000E-01 -4.37500000E-01  1.25000000E-01
                      -6.25000000E-02 -4.37500000E-01  1.87500000E-01
                      -3.12500000E-01 -3.75000000E-01  0.00000000E+00
                      -2.50000000E-01 -3.75000000E-01  6.25000000E-02
                      -1.87500000E-01 -3.75000000E-01  1.25000000E-01
                      -1.25000000E-01 -3.75000000E-01  1.87500000E-01
                      -6.25000000E-02 -3.75000000E-01  2.50000000E-01
                      -6.25000000E-02  2.50000000E-01  0.00000000E+00
                      -1.25000000E-01  3.12500000E-01  0.00000000E+00
                      -1.87500000E-01  3.75000000E-01  0.00000000E+00
                      -2.50000000E-01  4.37500000E-01  0.00000000E+00
                      -3.12500000E-01  5.00000000E-01  0.00000000E+00
                      -2.50000000E-01  5.00000000E-01  6.25000000E-02
                      -1.87500000E-01  5.00000000E-01  1.25000000E-01
                      -3.75000000E-01 -4.37500000E-01  0.00000000E+00
                      -3.12500000E-01 -4.37500000E-01  6.25000000E-02
                      -2.50000000E-01 -4.37500000E-01  1.25000000E-01
                      -1.87500000E-01 -4.37500000E-01  1.87500000E-01
                      -1.25000000E-01 -4.37500000E-01  2.50000000E-01
                      -6.25000000E-02 -4.37500000E-01  3.12500000E-01
                      -6.25000000E-02  1.25000000E-01  0.00000000E+00
                      -1.25000000E-01  1.87500000E-01  0.00000000E+00
                      -1.87500000E-01  2.50000000E-01  0.00000000E+00
                      -2.50000000E-01  3.12500000E-01  0.00000000E+00
                       outvar_i_n : Printing only first  50 k-points.
         kptrlatt        8   -8    8     -8    8    8     -8   -8    8
          kptrlen      4.37563589E+01
P           mkmem          30
            natom           2
            nband           4
            ngfft          27      27      27
             nkpt          60
             nsym          48
           ntypat           1
              occ      2.000000  2.000000  2.000000  2.000000
          optcell           2
            rprim      5.0000000000E-01  5.0000000000E-01  0.0000000000E+00
                       0.0000000000E+00  5.0000000000E-01  5.0000000000E-01
                       5.0000000000E-01  0.0000000000E+00  5.0000000000E-01
           shiftk      5.00000000E-01  5.00000000E-01  5.00000000E-01
          spgroup         227
           symrel      1  0  0   0  1  0   0  0  1      -1  0  0   0 -1  0   0  0 -1
                       0 -1  1   0 -1  0   1 -1  0       0  1 -1   0  1  0  -1  1  0
                      -1  0  0  -1  0  1  -1  1  0       1  0  0   1  0 -1   1 -1  0
                       0  1 -1   1  0 -1   0  0 -1       0 -1  1  -1  0  1   0  0  1
                      -1  0  0  -1  1  0  -1  0  1       1  0  0   1 -1  0   1  0 -1
                       0 -1  1   1 -1  0   0 -1  0       0  1 -1  -1  1  0   0  1  0
                       1  0  0   0  0  1   0  1  0      -1  0  0   0  0 -1   0 -1  0
                       0  1 -1   0  0 -1   1  0 -1       0 -1  1   0  0  1  -1  0  1
                      -1  0  1  -1  1  0  -1  0  0       1  0 -1   1 -1  0   1  0  0
                       0 -1  0   1 -1  0   0 -1  1       0  1  0  -1  1  0   0  1 -1
                       1  0 -1   0  0 -1   0  1 -1      -1  0  1   0  0  1   0 -1  1
                       0  1  0   0  0  1   1  0  0       0 -1  0   0  0 -1  -1  0  0
                       1  0 -1   0  1 -1   0  0 -1      -1  0  1   0 -1  1   0  0  1
                       0 -1  0   0 -1  1   1 -1  0       0  1  0   0  1 -1  -1  1  0
                      -1  0  1  -1  0  0  -1  1  0       1  0 -1   1  0  0   1 -1  0
                       0  1  0   1  0  0   0  0  1       0 -1  0  -1  0  0   0  0 -1
                       0  0 -1   0  1 -1   1  0 -1       0  0  1   0 -1  1  -1  0  1
                       1 -1  0   0 -1  1   0 -1  0      -1  1  0   0  1 -1   0  1  0
                       0  0  1   1  0  0   0  1  0       0  0 -1  -1  0  0   0 -1  0
                      -1  1  0  -1  0  0  -1  0  1       1 -1  0   1  0  0   1  0 -1
                       0  0  1   0  1  0   1  0  0       0  0 -1   0 -1  0  -1  0  0
                       1 -1  0   0 -1  0   0 -1  1      -1  1  0   0  1  0   0  1 -1
                       0  0 -1   1  0 -1   0  1 -1       0  0  1  -1  0  1   0 -1  1
                      -1  1  0  -1  0  1  -1  0  0       1 -1  0   1  0 -1   1  0  0
            tnons      0.0000000  0.0000000  0.0000000     0.2500000  0.2500000  0.2500000
                       0.0000000  0.0000000  0.0000000     0.2500000  0.2500000  0.2500000
                       0.0000000  0.0000000  0.0000000     0.2500000  0.2500000  0.2500000
                       0.0000000  0.0000000  0.0000000     0.2500000  0.2500000  0.2500000
                       0.0000000  0.0000000  0.0000000     0.2500000  0.2500000  0.2500000
                       0.0000000  0.0000000  0.0000000     0.2500000  0.2500000  0.2500000
                       0.0000000  0.0000000  0.0000000     0.2500000  0.2500000  0.2500000
                       0.0000000  0.0000000  0.0000000     0.2500000  0.2500000  0.2500000
                       0.0000000  0.0000000  0.0000000     0.2500000  0.2500000  0.2500000
                       0.0000000  0.0000000  0.0000000     0.2500000  0.2500000  0.2500000
                       0.0000000  0.0000000  0.0000000     0.2500000  0.2500000  0.2500000
                       0.0000000  0.0000000  0.0000000     0.2500000  0.2500000  0.2500000
                       0.0000000  0.0000000  0.0000000     0.2500000  0.2500000  0.2500000
                       0.0000000  0.0000000  0.0000000     0.2500000  0.2500000  0.2500000
                       0.0000000  0.0000000  0.0000000     0.2500000  0.2500000  0.2500000
                       0.0000000  0.0000000  0.0000000     0.2500000  0.2500000  0.2500000
                       0.0000000  0.0000000  0.0000000     0.2500000  0.2500000  0.2500000
                       0.0000000  0.0000000  0.0000000     0.2500000  0.2500000  0.2500000
                       0.0000000  0.0000000  0.0000000     0.2500000  0.2500000  0.2500000
                       0.0000000  0.0000000  0.0000000     0.2500000  0.2500000  0.2500000
                       0.0000000  0.0000000  0.0000000     0.2500000  0.2500000  0.2500000
                       0.0000000  0.0000000  0.0000000     0.2500000  0.2500000  0.2500000
                       0.0000000  0.0000000  0.0000000     0.2500000  0.2500000  0.2500000
                       0.0000000  0.0000000  0.0000000     0.2500000  0.2500000  0.2500000
           tolvrs      1.00000000E-08
            typat      1  1
              wtk        0.01172    0.01172    0.01172    0.02344    0.01172    0.01172
                         0.02344    0.01172    0.02344    0.02344    0.01172    0.01172
                         0.02344    0.01172    0.02344    0.02344    0.01172    0.02344
                         0.02344    0.02344    0.01172    0.01172    0.01172    0.02344
                         0.01172    0.02344    0.02344    0.02344    0.01172    0.02344
                         0.02344    0.02344    0.02344    0.01172    0.01172    0.01172
                         0.01172    0.01172    0.02344    0.02344    0.01172    0.02344
                         0.02344    0.02344    0.02344    0.02344    0.01172    0.01172
                         0.01172    0.01172
                       outvars : Printing only first  50 k-points.
           xangst      0.0000000000E+00  0.0000000000E+00  0.0000000000E+00
                       7.2358962032E-01  7.2358962032E-01  7.2358962032E-01
            xcart      0.0000000000E+00  0.0000000000E+00  0.0000000000E+00
                       1.3673862150E+00  1.3673862150E+00  1.3673862150E+00
             xred      0.0000000000E+00  0.0000000000E+00  0.0000000000E+00
                       2.5000000000E-01  2.5000000000E-01  2.5000000000E-01
            znucl       14.00000
 
================================================================================
 
 chkinp: Checking input parameters for consistency.
 DATA TYPE INFORMATION: 
 REAL:      Data type name: REAL(DP) 
            Kind value:      8
            Precision:      15
            Smallest nonnegligible quantity relative to 1:  0.22204460E-15
            Smallest positive number:                       0.22250739-307
            Largest representable number:                   0.17976931+309
 INTEGER:   Data type name: INTEGER(default) 
            Kind value: 4
            Bit size:   32
            Largest representable number: 2147483647
 LOGICAL:   Data type name: LOGICAL 
            Kind value: 4
 CHARACTER: Data type name: CHARACTER             Kind value: 1

  ==== OpenMP parallelism is OFF ====
 
  ==== Using MPI-2 specifications ==== 
  MPI-IO support is ON
  xmpi_tag_ub ................   1073741824
  xmpi_bsize_ch ..............            1
  xmpi_bsize_int .............            4
  xmpi_bsize_sp ..............            4
  xmpi_bsize_dp ..............            8
  xmpi_bsize_spc .............            8
  xmpi_bsize_dpc .............           16
  xmpio_bsize_frm ............            4
  xmpi_address_kind ..........            8
  xmpi_offset_kind ...........            8
  MPI_WTICK ..................   1.000000000000000E-006
 
================================================================================
== DATASET  1 ==================================================================
-   nproc =    2
 
 
--- !COMMENT
src_file: m_xgScalapack.F90
src_line: 237
message: |
    xgScalapack in auto mode
...
 
 
 getdim_nloc : deduce lmnmax  =  18, lnmax  =   6,
                      lmnmaxso=  18, lnmaxso=   6.
 Exchange-correlation functional for the present dataset will be:
  GGA: Perdew-Burke-Ernzerhof functional - ixc=11
 Citation for XC functional:
  J.P.Perdew, K.Burke, M.Ernzerhof, PRL 77, 3865 (1996)
 
 Unit cell volume ucvol=  4.0906618E+01 bohr^3
 Angles (23,13,12)=  6.00000000E+01  6.00000000E+01  6.00000000E+01 degrees
 
 getcut: wavevector=  0.0000  0.0000  0.0000  ngfft=  27  27  27
         ecut(hartree)=     55.125   => boxcut(ratio)=   2.01437
- pspini: atom type   1  psp file is /CECI/home/ucl/naps/jovbever/.PsP/Si/Si.psp8
- pspatm: opening atomic psp file    /CECI/home/ucl/naps/jovbever/.PsP/Si/Si.psp8
- Si    ONCVPSP-3.2.3.1  r_core=   1.60303   1.72197   1.91712
- 14.00000   4.00000    170510                znucl, zion, pspdat
    8   11    2    4       600   0.00000      pspcod,pspxc,lmax,lloc,mmax,r2well
    5.99000000000000    4.00000000000000    0.00000000000000   rchrg,fchrg,qchrg
     nproj     2     2     2
     extension_switch     1
  valence charge integrates to:    3.95328304696650     
  pspatm : epsatm=    9.34321699
         --- l  ekb(1:nproj) -->
             0    5.168965    0.829883
             1    2.571282    0.578307
             2   -2.427311   -0.488097
 pspatm: atomic psp has been read  and splines computed
 
   1.49491472E+02                                ecore*ucvol(ha*bohr**3)
 ==== Info on pseudopotentials ====
  Norm-conserving pseudopotentials
  Number of pseudopotentials ..    1
  Number of types of atoms   ..    1
  Scalar calculation (no spin-orbit term)
  Nonlocal part applied using Legendre polynomials
  Max number of non-local projectors over l and type   2
  Highest angular momentum +1 .......   3
  Max number of (l,n)   components ..   6
  Max number of (l,m,n) components ..   6
 
 Pseudo-Core Charge Info: 
   Number of radial points for pseudo-core charge .. 2501
   XC core-correction treatment (optnlxccc) ........    1
   Radius for pseudo-core charge for each type ..... 
 
  - Atom type    1 has pseudo-core radius ..  5.9900
 
 Info on the Q-grid used for form factors in spline form: 
   Number of q-points for radial functions ffspl ..   3001
   Number of q-points for vlspl ...................   3001
   vloc is computed in Reciprocal Space
   model core charge treated in real-space
 
  XC functional for type 1 is 11
  Pseudo valence available: yes
 
 wfconv:     4 bands initialized randomly with npw=   807, for ikpt=     1
 wfconv:     4 bands initialized randomly with npw=   800, for ikpt=     2
 wfconv:     4 bands initialized randomly with npw=   807, for ikpt=     3
 wfconv:     4 bands initialized randomly with npw=   808, for ikpt=     4
 wfconv:     4 bands initialized randomly with npw=   796, for ikpt=     5
 wfconv:     4 bands initialized randomly with npw=   802, for ikpt=     6
 wfconv:     4 bands initialized randomly with npw=   803, for ikpt=     7
 wfconv:     4 bands initialized randomly with npw=   814, for ikpt=     8
 wfconv:     4 bands initialized randomly with npw=   813, for ikpt=     9
 wfconv:     4 bands initialized randomly with npw=   805, for ikpt=    10
 wfconv:     4 bands initialized randomly with npw=   797, for ikpt=    11
 wfconv:     4 bands initialized randomly with npw=   800, for ikpt=    12
 wfconv:     4 bands initialized randomly with npw=   802, for ikpt=    13
 wfconv:     4 bands initialized randomly with npw=   801, for ikpt=    14
 wfconv:     4 bands initialized randomly with npw=   802, for ikpt=    15
 wfconv:     4 bands initialized randomly with npw=   799, for ikpt=    16
 wfconv:     4 bands initialized randomly with npw=   812, for ikpt=    17
 wfconv:     4 bands initialized randomly with npw=   809, for ikpt=    18
 wfconv:     4 bands initialized randomly with npw=   803, for ikpt=    19
 wfconv:     4 bands initialized randomly with npw=   801, for ikpt=    20
 wfconv:     4 bands initialized randomly with npw=   800, for ikpt=    21
 wfconv:     4 bands initialized randomly with npw=   802, for ikpt=    22
 wfconv:     4 bands initialized randomly with npw=   801, for ikpt=    23
 wfconv:     4 bands initialized randomly with npw=   804, for ikpt=    24
 wfconv:     4 bands initialized randomly with npw=   802, for ikpt=    25
 wfconv:     4 bands initialized randomly with npw=   799, for ikpt=    26
 wfconv:     4 bands initialized randomly with npw=   796, for ikpt=    27
 wfconv:     4 bands initialized randomly with npw=   800, for ikpt=    28
 wfconv:     4 bands initialized randomly with npw=   802, for ikpt=    29
 wfconv:     4 bands initialized randomly with npw=   799, for ikpt=    30
_setup2: Arith. and geom. avg. npw (full set) are     799.559     799.535
 initro: for itypat=  1, take pseudo charge density from pp file
 
================================================================================
 
=== [ionmov= 2] Broyden-Fletcher-Goldfard-Shanno method (forces)            
================================================================================
 
--- Iteration: (1/1) Internal Cycle: (1/1)
--------------------------------------------------------------------------------
 
 Cartesian coordinates (xcart) [bohr]
  0.00000000000000E+00  0.00000000000000E+00  0.00000000000000E+00
  1.36738621500000E+00  1.36738621500000E+00  1.36738621500000E+00
 Reduced coordinates (xred)
  0.00000000000000E+00  0.00000000000000E+00  0.00000000000000E+00
  2.50000000000000E-01  2.50000000000000E-01  2.50000000000000E-01
 Scale of Primitive Cell (acell) [bohr]
  5.46954486000000E+00  5.46954486000000E+00  5.46954486000000E+00
 Real space primitive translations (rprimd) [bohr]
  2.73477243000000E+00  2.73477243000000E+00  0.00000000000000E+00
  0.00000000000000E+00  2.73477243000000E+00  2.73477243000000E+00
  2.73477243000000E+00  0.00000000000000E+00  2.73477243000000E+00
 Unitary Cell Volume (ucvol) [Bohr^3]=  4.09066179509997E+01
 Angles (23,13,12)= [degrees]
  6.00000000000000E+01  6.00000000000000E+01  6.00000000000000E+01
 Lengths [Bohr]
  3.86755226051003E+00  3.86755226051003E+00  3.86755226051003E+00
 
---SELF-CONSISTENT-FIELD CONVERGENCE--------------------------------------------
 
 getcut: wavevector=  0.0000  0.0000  0.0000  ngfft=  27  27  27
         ecut(hartree)=     50.000   => boxcut(ratio)=   2.11509
 
 ITER STEP NUMBER     1
 vtorho: nnsclo_now=2, note that nnsclo,dbl_nnsclo,istep=0 0 1
 
--- !WARNING
src_file: m_vtorho.F90
src_line: 1699
message: |
    For k-point number 1,
    The minimal occupation factor is  2.000.
    An adequate monitoring of convergence requires it to be  at most 0.01_dp.
    Action: increase slightly the number of bands.
...
 
 Total charge density [el/Bohr^3]
      Maximum=    2.6043E-01  at reduced coord.    0.2593    0.7407    0.7407
      Minimum=    3.2661E-03  at reduced coord.    0.0000    0.0000    0.0000
   Integrated=    8.0000E+00
 ETOT  1  -4.2296869629216    -4.230E+00 2.207E-01 3.763E+01
 scprqt: <Vxc>= -6.7001677E-01 hartree
 
 Simple mixing update:
  residual square of the potential:    25.7421911661384
 scfcv_core: previous iteration took  1.27 [s]
 
 ITER STEP NUMBER     2
 vtorho: nnsclo_now=2, note that nnsclo,dbl_nnsclo,istep=0 0 2
 
--- !WARNING
src_file: m_vtorho.F90
src_line: 1699
message: |
    For k-point number 1,
    The minimal occupation factor is  2.000.
    An adequate monitoring of convergence requires it to be  at most 0.01_dp.
    Action: increase slightly the number of bands.
...
 
 Total charge density [el/Bohr^3]
      Maximum=    2.6054E-01  at reduced coord.    0.2593    0.7407    0.7407
      Minimum=    3.5978E-03  at reduced coord.    0.0000    0.0000    0.0000
   Integrated=    8.0000E+00
 ETOT  2  -4.2517658274420    -2.208E-02 3.274E-03 1.623E-02
 scprqt: <Vxc>= -6.6984993E-01 hartree
 
 Pulay update with  1 previous iterations:
 mixing of old trial potential: alpha(m:m-4)=   1.02     -0.175E-01
 scfcv_core: previous iteration took  1.22 [s]
 
 ITER STEP NUMBER     3
 vtorho: nnsclo_now=1, note that nnsclo,dbl_nnsclo,istep=0 0 3
 
--- !WARNING
src_file: m_vtorho.F90
src_line: 1699
message: |
    For k-point number 1,
    The minimal occupation factor is  2.000.
    An adequate monitoring of convergence requires it to be  at most 0.01_dp.
    Action: increase slightly the number of bands.
...
 
 Total charge density [el/Bohr^3]
      Maximum=    2.6050E-01  at reduced coord.    0.2593    0.7407    0.7407
      Minimum=    3.6104E-03  at reduced coord.    0.0000    0.0000    0.0000
   Integrated=    8.0000E+00
 ETOT  3  -4.2518046422725    -3.881E-05 4.036E-04 2.850E-05
 scprqt: <Vxc>= -6.6984895E-01 hartree
 
 Pulay update with  2 previous iterations:
 mixing of old trial potential: alpha(m:m-4)=   1.07     -0.677E-01  0.149E-02
 scfcv_core: previous iteration took  0.64 [s]
 
 ITER STEP NUMBER     4
 vtorho: nnsclo_now=1, note that nnsclo,dbl_nnsclo,istep=0 0 4
 
--- !WARNING
src_file: m_vtorho.F90
src_line: 1699
message: |
    For k-point number 1,
    The minimal occupation factor is  2.000.
    An adequate monitoring of convergence requires it to be  at most 0.01_dp.
    Action: increase slightly the number of bands.
...
 
 Total charge density [el/Bohr^3]
      Maximum=    2.6050E-01  at reduced coord.    0.2593    0.7407    0.7407
      Minimum=    3.6102E-03  at reduced coord.    0.0000    0.0000    0.0000
   Integrated=    8.0000E+00
 ETOT  4  -4.2518078862417    -3.244E-06 3.265E-05 6.716E-07
 scprqt: <Vxc>= -6.6984927E-01 hartree
 
 Pulay update with  3 previous iterations:
 mixing of old trial potential: alpha(m:m-4)=   1.03     -0.327E-01  0.405E-02 -0.213E-03
 scfcv_core: previous iteration took  0.66 [s]
 
 ITER STEP NUMBER     5
 vtorho: nnsclo_now=1, note that nnsclo,dbl_nnsclo,istep=0 0 5
 
--- !WARNING
src_file: m_vtorho.F90
src_line: 1699
message: |
    For k-point number 1,
    The minimal occupation factor is  2.000.
    An adequate monitoring of convergence requires it to be  at most 0.01_dp.
    Action: increase slightly the number of bands.
...
 
 Total charge density [el/Bohr^3]
      Maximum=    2.6050E-01  at reduced coord.    0.2593    0.7407    0.7407
      Minimum=    3.6104E-03  at reduced coord.    0.0000    0.0000    0.0000
   Integrated=    8.0000E+00
 ETOT  5  -4.2518082171725    -3.309E-07 6.105E-06 8.199E-08
 scprqt: <Vxc>= -6.6984924E-01 hartree
 
 Pulay update with  4 previous iterations:
 mixing of old trial potential: alpha(m:m-4)=  0.917      0.100     -0.172E-01  0.706E-03  0.115E-04
 scfcv_core: previous iteration took  0.67 [s]
 
 ITER STEP NUMBER     6
 vtorho: nnsclo_now=1, note that nnsclo,dbl_nnsclo,istep=0 0 6
 Total charge density [el/Bohr^3]
      Maximum=    2.6050E-01  at reduced coord.    0.2593    0.7407    0.7407
      Minimum=    3.6103E-03  at reduced coord.    0.0000    0.0000    0.0000
   Integrated=    8.0000E+00
 ETOT  6  -4.2518082554262    -3.825E-08 5.501E-07 2.208E-09
 scprqt: <Vxc>= -6.6984925E-01 hartree
 
 At SCF step    6       vres2   =  2.21E-09 < tolvrs=  1.00E-08 =>converged.
 
 Cartesian components of stress tensor (hartree/bohr^3)
  sigma(1 1)= -1.45358324E-01  sigma(3 2)=  0.00000000E+00
  sigma(2 2)= -1.45358324E-01  sigma(3 1)=  0.00000000E+00
  sigma(3 3)= -1.45358324E-01  sigma(2 1)=  0.00000000E+00
 
 
   fftdatar_write: About to write data to: opto_TIM1_DEN with iomode: IO_MODE_FORTRAN
 IO operation completed. cpu:  0.00 [s] , wall:  0.00 [s]
- Creating HDf5 file with MPI-IO support: opto_GSR.nc
 Write iteration in HIST netCDF file
 
---OUTPUT-----------------------------------------------------------------------
 
 Cartesian coordinates (xcart) [bohr]
  0.00000000000000E+00  0.00000000000000E+00  0.00000000000000E+00
  1.36738621500000E+00  1.36738621500000E+00  1.36738621500000E+00
 Reduced coordinates (xred)
  0.00000000000000E+00  0.00000000000000E+00  0.00000000000000E+00
  2.50000000000000E-01  2.50000000000000E-01  2.50000000000000E-01
 Cartesian forces (fcart) [Ha/bohr]; max,rms= 0.00000E+00 0.00000E+00 (free atoms)
  0.00000000000000E+00  0.00000000000000E+00  0.00000000000000E+00
  0.00000000000000E+00  0.00000000000000E+00  0.00000000000000E+00
 Reduced forces (fred)
  0.00000000000000E+00  0.00000000000000E+00  0.00000000000000E+00
  0.00000000000000E+00  0.00000000000000E+00  0.00000000000000E+00
 Scale of Primitive Cell (acell) [bohr]
  5.46954486000000E+00  5.46954486000000E+00  5.46954486000000E+00
 Real space primitive translations (rprimd) [bohr]
  2.73477243000000E+00  2.73477243000000E+00  0.00000000000000E+00
  0.00000000000000E+00  2.73477243000000E+00  2.73477243000000E+00
  2.73477243000000E+00  0.00000000000000E+00  2.73477243000000E+00
 Unitary Cell Volume (ucvol) [Bohr^3]=  4.09066179509997E+01
 Angles (23,13,12)= [degrees]
  6.00000000000000E+01  6.00000000000000E+01  6.00000000000000E+01
 Lengths [Bohr]
  3.86755226051003E+00  3.86755226051003E+00  3.86755226051003E+00
 Stress tensor in cartesian coordinates (strten) [Ha/bohr^3]
 -1.45358323993562E-01  0.00000000000000E+00  0.00000000000000E+00
  0.00000000000000E+00 -1.45358323993562E-01  0.00000000000000E+00
  0.00000000000000E+00  0.00000000000000E+00 -1.45358323993562E-01
 Total energy (etotal) [Ha]= -4.25180825542617E+00
 
 fconv : WARNING -
  ntime=    1 was not enough Broyd/MD steps to converge gradients: 
  max grad (force/stress) = 1.4536E+01 > tolmxf= 5.0000E-05 ha/bohr (free atoms)
 

--- !RelaxConvergenceWarning
message: | 
    
     fconv : WARNING -
      ntime=    1 was not enough Broyd/MD steps to converge gradients: 
      max grad (force/stress) = 1.4536E+01 > tolmxf= 5.0000E-05 ha/bohr (free atoms)

...
================================================================================
 
 ----iterations are completed or convergence reached----
 
 
 === Gap info ===
Not enough states to calculate the band gap.
 Mean square residual over all n,k,spin=   32.707E-10; max=  55.009E-08
  -0.0625 -0.1250  0.0000    1  2.18656E-08 kpt; spin; max resid(k); each band:
  1.17E-14 2.16E-10 2.30E-09 2.19E-08
  -0.0625 -0.2500  0.0000    1  5.88336E-11 kpt; spin; max resid(k); each band:
  3.93E-14 8.49E-14 5.88E-11 3.83E-11
  -0.1250 -0.1875  0.0000    1  8.65418E-10 kpt; spin; max resid(k); each band:
  1.72E-14 1.65E-11 8.65E-10 6.96E-10
  -0.0625 -0.1875  0.0625    1  6.08650E-11 kpt; spin; max resid(k); each band:
  4.08E-14 1.27E-13 1.08E-11 6.09E-11
  -0.0625 -0.3750  0.0000    1  3.66421E-12 kpt; spin; max resid(k); each band:
  4.86E-14 6.46E-14 3.66E-12 1.32E-12
  -0.1250 -0.3125  0.0000    1  2.88154E-11 kpt; spin; max resid(k); each band:
  5.15E-14 8.80E-14 1.28E-11 2.88E-11
  -0.0625 -0.3125  0.0625    1  1.32550E-11 kpt; spin; max resid(k); each band:
  5.85E-14 8.61E-14 2.42E-12 1.33E-11
  -0.1875 -0.2500  0.0000    1  3.43681E-09 kpt; spin; max resid(k); each band:
  2.35E-14 2.28E-13 2.42E-11 3.44E-09
  -0.1250 -0.2500  0.0625    1  2.49228E-10 kpt; spin; max resid(k); each band:
  5.08E-14 1.43E-13 1.79E-12 2.49E-10
  -0.0625 -0.2500  0.1250    1  1.48086E-11 kpt; spin; max resid(k); each band:
  6.81E-14 5.72E-14 9.60E-14 1.48E-11
  -0.0625  0.5000  0.0000    1  1.72176E-13 kpt; spin; max resid(k); each band:
  6.42E-15 2.90E-14 1.72E-13 1.60E-14
  -0.1250 -0.4375  0.0000    1  1.86939E-12 kpt; spin; max resid(k); each band:
  4.63E-14 8.97E-14 4.08E-13 1.87E-12
  -0.0625 -0.4375  0.0625    1  2.12230E-12 kpt; spin; max resid(k); each band:
  3.31E-14 7.06E-14 1.05E-13 2.12E-12
  -0.1875 -0.3750  0.0000    1  8.69464E-11 kpt; spin; max resid(k); each band:
  5.42E-14 7.78E-14 2.20E-13 8.69E-11
  -0.1250 -0.3750  0.0625    1  7.95243E-13 kpt; spin; max resid(k); each band:
  6.05E-14 9.31E-14 1.27E-13 7.95E-13
  -0.0625 -0.3750  0.1250    1  2.99550E-12 kpt; spin; max resid(k); each band:
  5.93E-14 9.11E-14 1.09E-13 3.00E-12
  -0.2500 -0.3125  0.0000    1  2.31859E-08 kpt; spin; max resid(k); each band:
  2.82E-14 5.46E-14 1.54E-09 2.32E-08
  -0.1875 -0.3125  0.0625    1  8.31109E-12 kpt; spin; max resid(k); each band:
  5.74E-14 2.97E-14 3.48E-13 8.31E-12
  -0.1250 -0.3125  0.1250    1  5.49290E-13 kpt; spin; max resid(k); each band:
  7.18E-14 5.01E-14 1.36E-13 5.49E-13
  -0.0625 -0.3125  0.1875    1  9.67389E-12 kpt; spin; max resid(k); each band:
  7.34E-14 5.14E-14 9.06E-14 9.67E-12
  -0.0625  0.3750  0.0000    1  3.20126E-12 kpt; spin; max resid(k); each band:
  4.62E-14 5.66E-14 2.06E-13 3.20E-12
  -0.1250  0.4375  0.0000    1  6.30633E-13 kpt; spin; max resid(k); each band:
  9.27E-15 6.53E-14 1.04E-13 6.31E-13
  -0.1875  0.5000  0.0000    1  3.65984E-12 kpt; spin; max resid(k); each band:
  2.68E-14 1.03E-13 1.03E-13 3.66E-12
  -0.1250  0.5000  0.0625    1  3.22630E-13 kpt; spin; max resid(k); each band:
  8.96E-15 9.18E-14 9.25E-14 3.23E-13
  -0.2500 -0.4375  0.0000    1  6.06942E-12 kpt; spin; max resid(k); each band:
  4.90E-14 4.96E-14 9.98E-14 6.07E-12
  -0.1875 -0.4375  0.0625    1  6.67950E-13 kpt; spin; max resid(k); each band:
  5.02E-14 8.99E-14 1.05E-13 6.68E-13
  -0.1250 -0.4375  0.1250    1  1.09777E-13 kpt; spin; max resid(k); each band:
  3.96E-14 1.03E-13 1.10E-13 1.04E-13
  -0.0625 -0.4375  0.1875    1  2.50779E-12 kpt; spin; max resid(k); each band:
  1.44E-14 1.02E-13 1.06E-13 2.51E-12
  -0.3125 -0.3750  0.0000    1  2.47027E-10 kpt; spin; max resid(k); each band:
  3.01E-14 1.04E-14 2.47E-10 3.01E-11
  -0.2500 -0.3750  0.0625    1  4.97983E-12 kpt; spin; max resid(k); each band:
  5.75E-14 1.30E-14 1.59E-13 4.98E-12
  -0.1875 -0.3750  0.1250    1  8.40089E-14 kpt; spin; max resid(k); each band:
  6.65E-14 3.15E-14 8.40E-14 3.08E-14
  -0.1250 -0.3750  0.1875    1  8.50236E-14 kpt; spin; max resid(k); each band:
  5.97E-14 5.03E-14 8.50E-14 8.22E-14
  -0.0625 -0.3750  0.2500    1  7.24382E-13 kpt; spin; max resid(k); each band:
  3.81E-14 4.88E-14 6.57E-14 7.24E-13
  -0.0625  0.2500  0.0000    1  5.23727E-12 kpt; spin; max resid(k); each band:
  4.76E-14 5.70E-14 4.43E-12 5.24E-12
  -0.1250  0.3125  0.0000    1  1.55065E-11 kpt; spin; max resid(k); each band:
  6.47E-14 7.47E-14 1.77E-13 1.55E-11
  -0.1875  0.3750  0.0000    1  1.82939E-12 kpt; spin; max resid(k); each band:
  4.12E-14 8.99E-14 9.68E-14 1.83E-12
  -0.2500  0.4375  0.0000    1  3.79019E-12 kpt; spin; max resid(k); each band:
  6.39E-15 9.70E-14 9.89E-14 3.79E-12
  -0.3125  0.5000  0.0000    1  1.02321E-10 kpt; spin; max resid(k); each band:
  3.80E-14 2.10E-14 7.02E-14 1.02E-10
  -0.2500  0.5000  0.0625    1  7.58873E-14 kpt; spin; max resid(k); each band:
  3.10E-14 6.23E-14 7.59E-14 7.39E-14
  -0.1875  0.5000  0.1250    1  9.66630E-14 kpt; spin; max resid(k); each band:
  1.52E-14 9.46E-14 9.67E-14 5.73E-14
  -0.3750 -0.4375  0.0000    1  6.38245E-09 kpt; spin; max resid(k); each band:
  2.86E-14 1.00E-14 4.09E-10 6.38E-09
  -0.3125 -0.4375  0.0625    1  1.55846E-12 kpt; spin; max resid(k); each band:
  5.01E-14 1.02E-14 9.95E-14 1.56E-12
  -0.2500 -0.4375  0.1250    1  6.26496E-14 kpt; spin; max resid(k); each band:
  5.13E-14 1.43E-14 6.26E-14 6.16E-14
  -0.1875 -0.4375  0.1875    1  6.00676E-14 kpt; spin; max resid(k); each band:
  3.55E-14 3.10E-14 6.01E-14 5.66E-14
  -0.1250 -0.4375  0.2500    1  7.14038E-14 kpt; spin; max resid(k); each band:
  1.32E-14 4.21E-14 3.87E-14 7.14E-14
  -0.0625 -0.4375  0.3125    1  5.18410E-14 kpt; spin; max resid(k); each band:
  9.38E-15 2.92E-14 2.25E-14 5.18E-14
  -0.0625  0.1250  0.0000    1  7.42423E-08 kpt; spin; max resid(k); each band:
  2.60E-14 1.39E-11 3.70E-10 7.42E-08
  -0.1250  0.1875  0.0000    1  1.17051E-10 kpt; spin; max resid(k); each band:
  5.70E-14 5.57E-14 2.34E-13 1.17E-10
  -0.1875  0.2500  0.0000    1  4.29144E-11 kpt; spin; max resid(k); each band:
  7.58E-14 4.12E-14 9.93E-14 4.29E-11
  -0.2500  0.3125  0.0000    1  1.46092E-11 kpt; spin; max resid(k); each band:
  6.20E-14 4.36E-14 8.52E-14 1.46E-11
 outwf : prtvol=0 or 1, do not print more k-points.
 
 
   outwf: writing wavefunctions to: opto_WFK with iomode: IO_MODE_FORTRAN_MASTER
 WFK output completed. cpu:  0.01 [s] , wall:  0.01 [s]
 prteigrs : about to open file opto_EIG
 Fermi (or HOMO) energy (hartree) =   1.47012   Average Vxc (hartree)=  -0.66985
 Eigenvalues (hartree) for nkpt=  60  k points:
 kpt#   1, nband=  4, wtk=  0.01172, kpt= -0.0625 -0.1250  0.0000 (reduced coord)
   0.20406    1.34915    1.40790    1.42581
 kpt#   2, nband=  4, wtk=  0.01172, kpt= -0.0625 -0.2500  0.0000 (reduced coord)
   0.27243    1.11001    1.33920    1.34283
 kpt#   3, nband=  4, wtk=  0.01172, kpt= -0.1250 -0.1875  0.0000 (reduced coord)
   0.23851    1.25586    1.34614    1.34884
 kpt#   4, nband=  4, wtk=  0.02344, kpt= -0.0625 -0.1875  0.0625 (reduced coord)
   0.25556    1.18739    1.29230    1.37191
 kpt#   5, nband=  4, wtk=  0.01172, kpt= -0.0625 -0.3750  0.0000 (reduced coord)
   0.38295    0.87889    1.27909    1.29164
 kpt#   6, nband=  4, wtk=  0.01172, kpt= -0.1250 -0.3125  0.0000 (reduced coord)
   0.32112    1.03007    1.25968    1.29781
 kpt#   7, nband=  4, wtk=  0.02344, kpt= -0.0625 -0.3125  0.0625 (reduced coord)
   0.35269    0.95566    1.23338    1.30577
 kpt#   8, nband=  4, wtk=  0.01172, kpt= -0.1875 -0.2500  0.0000 (reduced coord)
   0.28839    1.14263    1.28087    1.30074
 kpt#   9, nband=  4, wtk=  0.02344, kpt= -0.1250 -0.2500  0.0625 (reduced coord)
   0.30486    1.09602    1.22985    1.30701
 kpt#  10, nband=  4, wtk=  0.02344, kpt= -0.0625 -0.2500  0.1250 (reduced coord)
   0.33697    1.03004    1.16548    1.31359
 kpt#  11, nband=  4, wtk=  0.01172, kpt= -0.0625  0.5000  0.0000 (reduced coord)
   0.49169    0.72009    1.24942    1.27456
 kpt#  12, nband=  4, wtk=  0.01172, kpt= -0.1250 -0.4375  0.0000 (reduced coord)
   0.43880    0.81944    1.19958    1.26861
 kpt#  13, nband=  4, wtk=  0.02344, kpt= -0.0625 -0.4375  0.0625 (reduced coord)
   0.47317    0.76227    1.20336    1.26987
 kpt#  14, nband=  4, wtk=  0.01172, kpt= -0.1875 -0.3750  0.0000 (reduced coord)
   0.38263    0.95119    1.17417    1.26535
 kpt#  15, nband=  4, wtk=  0.02344, kpt= -0.1250 -0.3750  0.0625 (reduced coord)
   0.41195    0.88834    1.16254    1.26101
 kpt#  16, nband=  4, wtk=  0.02344, kpt= -0.0625 -0.3750  0.1250 (reduced coord)
   0.45252    0.82772    1.12867    1.26486
 kpt#  17, nband=  4, wtk=  0.01172, kpt= -0.2500 -0.3125  0.0000 (reduced coord)
   0.35173    1.02288    1.23343    1.26400
 kpt#  18, nband=  4, wtk=  0.02344, kpt= -0.1875 -0.3125  0.0625 (reduced coord)
   0.36735    0.99741    1.17612    1.25408
 kpt#  19, nband=  4, wtk=  0.02344, kpt= -0.1250 -0.3125  0.1250 (reduced coord)
   0.39758    0.95031    1.11344    1.25127
 kpt#  20, nband=  4, wtk=  0.02344, kpt= -0.0625 -0.3125  0.1875 (reduced coord)
   0.44029    0.89342    1.05603    1.26164
 kpt#  21, nband=  4, wtk=  0.01172, kpt= -0.0625  0.3750  0.0000 (reduced coord)
   0.42496    0.81212    1.25461    1.29201
 kpt#  22, nband=  4, wtk=  0.01172, kpt= -0.1250  0.4375  0.0000 (reduced coord)
   0.50412    0.73068    1.17434    1.26808
 kpt#  23, nband=  4, wtk=  0.01172, kpt= -0.1875  0.5000  0.0000 (reduced coord)
   0.49921    0.77570    1.10984    1.25155
 kpt#  24, nband=  4, wtk=  0.02344, kpt= -0.1250  0.5000  0.0625 (reduced coord)
   0.51658    0.73930    1.12935    1.24645
 kpt#  25, nband=  4, wtk=  0.01172, kpt= -0.2500 -0.4375  0.0000 (reduced coord)
   0.45421    0.87137    1.10348    1.24203
 kpt#  26, nband=  4, wtk=  0.02344, kpt= -0.1875 -0.4375  0.0625 (reduced coord)
   0.47960    0.82806    1.08850    1.22684
 kpt#  27, nband=  4, wtk=  0.02344, kpt= -0.1250 -0.4375  0.1250 (reduced coord)
   0.51187    0.78274    1.07370    1.21537
 kpt#  28, nband=  4, wtk=  0.02344, kpt= -0.0625 -0.4375  0.1875 (reduced coord)
   0.54096    0.75306    1.04841    1.22998
 kpt#  29, nband=  4, wtk=  0.01172, kpt= -0.3125 -0.3750  0.0000 (reduced coord)
   0.42619    0.90697    1.19957    1.23780
 kpt#  30, nband=  4, wtk=  0.02344, kpt= -0.2500 -0.3750  0.0625 (reduced coord)
   0.44055    0.89628    1.13550    1.21492
 kpt#  31, nband=  4, wtk=  0.02344, kpt= -0.1875 -0.3750  0.1250 (reduced coord)
   0.46791    0.87017    1.07442    1.19146
 kpt#  32, nband=  4, wtk=  0.02344, kpt= -0.1250 -0.3750  0.1875 (reduced coord)
   0.50527    0.83040    1.02217    1.19641
 kpt#  33, nband=  4, wtk=  0.02344, kpt= -0.0625 -0.3750  0.2500 (reduced coord)
   0.54730    0.78702    0.98503    1.22149
 kpt#  34, nband=  4, wtk=  0.01172, kpt= -0.0625  0.2500  0.0000 (reduced coord)
   0.30535    1.03017    1.29241    1.34454
 kpt#  35, nband=  4, wtk=  0.01172, kpt= -0.1250  0.3125  0.0000 (reduced coord)
   0.39760    0.88655    1.18307    1.29946
 kpt#  36, nband=  4, wtk=  0.01172, kpt= -0.1875  0.3750  0.0000 (reduced coord)
   0.49889    0.77953    1.08620    1.26399
 kpt#  37, nband=  4, wtk=  0.01172, kpt= -0.2500  0.4375  0.0000 (reduced coord)
   0.55363    0.75223    1.02745    1.24063
 kpt#  38, nband=  4, wtk=  0.01172, kpt= -0.3125  0.5000  0.0000 (reduced coord)
   0.53262    0.78962    1.05483    1.22717
 kpt#  39, nband=  4, wtk=  0.02344, kpt= -0.2500  0.5000  0.0625 (reduced coord)
   0.55039    0.77261    1.02647    1.20402
 kpt#  40, nband=  4, wtk=  0.02344, kpt= -0.1875  0.5000  0.1250 (reduced coord)
   0.56581    0.75500    1.02121    1.17299
 kpt#  41, nband=  4, wtk=  0.01172, kpt= -0.3750 -0.4375  0.0000 (reduced coord)
   0.50944    0.79795    1.17760    1.22110
 kpt#  42, nband=  4, wtk=  0.02344, kpt= -0.3125 -0.4375  0.0625 (reduced coord)
   0.52188    0.79708    1.10900    1.18803
 kpt#  43, nband=  4, wtk=  0.02344, kpt= -0.2500 -0.4375  0.1250 (reduced coord)
   0.54471    0.78974    1.05029    1.14399
 kpt#  44, nband=  4, wtk=  0.02344, kpt= -0.1875 -0.4375  0.1875 (reduced coord)
   0.57317    0.77091    1.00731    1.12945
 kpt#  45, nband=  4, wtk=  0.02344, kpt= -0.1250 -0.4375  0.2500 (reduced coord)
   0.59889    0.74525    0.98425    1.15019
 kpt#  46, nband=  4, wtk=  0.02344, kpt= -0.0625 -0.4375  0.3125 (reduced coord)
   0.61232    0.72292    0.99059    1.19241
 kpt#  47, nband=  4, wtk=  0.01172, kpt= -0.0625  0.1250  0.0000 (reduced coord)
   0.22147    1.27178    1.35755    1.42472
 kpt#  48, nband=  4, wtk=  0.01172, kpt= -0.1250  0.1875  0.0000 (reduced coord)
   0.28889    1.10937    1.22689    1.36068
 kpt#  49, nband=  4, wtk=  0.01172, kpt= -0.1875  0.2500  0.0000 (reduced coord)
   0.38298    0.96055    1.10535    1.30360
 kpt#  50, nband=  4, wtk=  0.01172, kpt= -0.2500  0.3125  0.0000 (reduced coord)
   0.49197    0.83717    1.01104    1.26208
 prteigrs : prtvol=0 or 1, do not print more k-points.
 
 Total charge density [el/Bohr^3]
      Maximum=    2.6050E-01  at reduced coord.    0.2593    0.7407    0.7407
 Next maximum=    2.6050E-01  at reduced coord.    0.7407    0.2593    0.7407
      Minimum=    3.6103E-03  at reduced coord.    0.0000    0.0000    0.0000
 Next minimum=    4.8323E-03  at reduced coord.    0.2593    0.2593    0.2222
   Integrated=    8.0000E+00
 
 Cartesian components of stress tensor (hartree/bohr^3)
  sigma(1 1)= -1.45358324E-01  sigma(3 2)=  0.00000000E+00
  sigma(2 2)= -1.45358324E-01  sigma(3 1)=  0.00000000E+00
  sigma(3 3)= -1.45358324E-01  sigma(2 1)=  0.00000000E+00
 
-Cartesian components of stress tensor (GPa)         [Pressure=  4.2766E+03 GPa]
- sigma(1 1)= -4.27658882E+03  sigma(3 2)=  0.00000000E+00
- sigma(2 2)= -4.27658882E+03  sigma(3 1)=  0.00000000E+00
- sigma(3 3)= -4.27658882E+03  sigma(2 1)=  0.00000000E+00
 
== END DATASET(S) ==============================================================
================================================================================
  
 -outvars: echo values of variables after computation  --------
 
 These variables are accessible in NetCDF format (opto_OUT.nc)

            acell      5.4695448600E+00  5.4695448600E+00  5.4695448600E+00 Bohr
              amu      2.80855000E+01
          dilatmx      1.05000000E+00
             ecut      5.00000000E+01 Hartree
           ecutsm      5.00000000E-01 Hartree
           etotal     -4.2518082554E+00
            fcart      0.0000000000E+00  0.0000000000E+00  0.0000000000E+00
                       0.0000000000E+00  0.0000000000E+00  0.0000000000E+00
-          fftalg         312
           ionmov           2
              ixc          11
              kpt     -6.25000000E-02 -1.25000000E-01  0.00000000E+00
                      -6.25000000E-02 -2.50000000E-01  0.00000000E+00
                      -1.25000000E-01 -1.87500000E-01  0.00000000E+00
                      -6.25000000E-02 -1.87500000E-01  6.25000000E-02
                      -6.25000000E-02 -3.75000000E-01  0.00000000E+00
                      -1.25000000E-01 -3.12500000E-01  0.00000000E+00
                      -6.25000000E-02 -3.12500000E-01  6.25000000E-02
                      -1.87500000E-01 -2.50000000E-01  0.00000000E+00
                      -1.25000000E-01 -2.50000000E-01  6.25000000E-02
                      -6.25000000E-02 -2.50000000E-01  1.25000000E-01
                      -6.25000000E-02  5.00000000E-01  0.00000000E+00
                      -1.25000000E-01 -4.37500000E-01  0.00000000E+00
                      -6.25000000E-02 -4.37500000E-01  6.25000000E-02
                      -1.87500000E-01 -3.75000000E-01  0.00000000E+00
                      -1.25000000E-01 -3.75000000E-01  6.25000000E-02
                      -6.25000000E-02 -3.75000000E-01  1.25000000E-01
                      -2.50000000E-01 -3.12500000E-01  0.00000000E+00
                      -1.87500000E-01 -3.12500000E-01  6.25000000E-02
                      -1.25000000E-01 -3.12500000E-01  1.25000000E-01
                      -6.25000000E-02 -3.12500000E-01  1.87500000E-01
                      -6.25000000E-02  3.75000000E-01  0.00000000E+00
                      -1.25000000E-01  4.37500000E-01  0.00000000E+00
                      -1.87500000E-01  5.00000000E-01  0.00000000E+00
                      -1.25000000E-01  5.00000000E-01  6.25000000E-02
                      -2.50000000E-01 -4.37500000E-01  0.00000000E+00
                      -1.87500000E-01 -4.37500000E-01  6.25000000E-02
                      -1.25000000E-01 -4.37500000E-01  1.25000000E-01
                      -6.25000000E-02 -4.37500000E-01  1.87500000E-01
                      -3.12500000E-01 -3.75000000E-01  0.00000000E+00
                      -2.50000000E-01 -3.75000000E-01  6.25000000E-02
                      -1.87500000E-01 -3.75000000E-01  1.25000000E-01
                      -1.25000000E-01 -3.75000000E-01  1.87500000E-01
                      -6.25000000E-02 -3.75000000E-01  2.50000000E-01
                      -6.25000000E-02  2.50000000E-01  0.00000000E+00
                      -1.25000000E-01  3.12500000E-01  0.00000000E+00
                      -1.87500000E-01  3.75000000E-01  0.00000000E+00
                      -2.50000000E-01  4.37500000E-01  0.00000000E+00
                      -3.12500000E-01  5.00000000E-01  0.00000000E+00
                      -2.50000000E-01  5.00000000E-01  6.25000000E-02
                      -1.87500000E-01  5.00000000E-01  1.25000000E-01
                      -3.75000000E-01 -4.37500000E-01  0.00000000E+00
                      -3.12500000E-01 -4.37500000E-01  6.25000000E-02
                      -2.50000000E-01 -4.37500000E-01  1.25000000E-01
                      -1.87500000E-01 -4.37500000E-01  1.87500000E-01
                      -1.25000000E-01 -4.37500000E-01  2.50000000E-01
                      -6.25000000E-02 -4.37500000E-01  3.12500000E-01
                      -6.25000000E-02  1.25000000E-01  0.00000000E+00
                      -1.25000000E-01  1.87500000E-01  0.00000000E+00
                      -1.87500000E-01  2.50000000E-01  0.00000000E+00
                      -2.50000000E-01  3.12500000E-01  0.00000000E+00
                       outvar_i_n : Printing only first  50 k-points.
         kptrlatt        8   -8    8     -8    8    8     -8   -8    8
          kptrlen      4.37563589E+01
P           mkmem          30
            natom           2
            nband           4
            ngfft          27      27      27
             nkpt          60
             nsym          48
           ntypat           1
              occ      2.000000  2.000000  2.000000  2.000000
          optcell           2
            rprim      5.0000000000E-01  5.0000000000E-01  0.0000000000E+00
                       0.0000000000E+00  5.0000000000E-01  5.0000000000E-01
                       5.0000000000E-01  0.0000000000E+00  5.0000000000E-01
           shiftk      5.00000000E-01  5.00000000E-01  5.00000000E-01
          spgroup         227
           strten     -1.4535832399E-01 -1.4535832399E-01 -1.4535832399E-01
                       0.0000000000E+00  0.0000000000E+00  0.0000000000E+00
           symrel      1  0  0   0  1  0   0  0  1      -1  0  0   0 -1  0   0  0 -1
                       0 -1  1   0 -1  0   1 -1  0       0  1 -1   0  1  0  -1  1  0
                      -1  0  0  -1  0  1  -1  1  0       1  0  0   1  0 -1   1 -1  0
                       0  1 -1   1  0 -1   0  0 -1       0 -1  1  -1  0  1   0  0  1
                      -1  0  0  -1  1  0  -1  0  1       1  0  0   1 -1  0   1  0 -1
                       0 -1  1   1 -1  0   0 -1  0       0  1 -1  -1  1  0   0  1  0
                       1  0  0   0  0  1   0  1  0      -1  0  0   0  0 -1   0 -1  0
                       0  1 -1   0  0 -1   1  0 -1       0 -1  1   0  0  1  -1  0  1
                      -1  0  1  -1  1  0  -1  0  0       1  0 -1   1 -1  0   1  0  0
                       0 -1  0   1 -1  0   0 -1  1       0  1  0  -1  1  0   0  1 -1
                       1  0 -1   0  0 -1   0  1 -1      -1  0  1   0  0  1   0 -1  1
                       0  1  0   0  0  1   1  0  0       0 -1  0   0  0 -1  -1  0  0
                       1  0 -1   0  1 -1   0  0 -1      -1  0  1   0 -1  1   0  0  1
                       0 -1  0   0 -1  1   1 -1  0       0  1  0   0  1 -1  -1  1  0
                      -1  0  1  -1  0  0  -1  1  0       1  0 -1   1  0  0   1 -1  0
                       0  1  0   1  0  0   0  0  1       0 -1  0  -1  0  0   0  0 -1
                       0  0 -1   0  1 -1   1  0 -1       0  0  1   0 -1  1  -1  0  1
                       1 -1  0   0 -1  1   0 -1  0      -1  1  0   0  1 -1   0  1  0
                       0  0  1   1  0  0   0  1  0       0  0 -1  -1  0  0   0 -1  0
                      -1  1  0  -1  0  0  -1  0  1       1 -1  0   1  0  0   1  0 -1
                       0  0  1   0  1  0   1  0  0       0  0 -1   0 -1  0  -1  0  0
                       1 -1  0   0 -1  0   0 -1  1      -1  1  0   0  1  0   0  1 -1
                       0  0 -1   1  0 -1   0  1 -1       0  0  1  -1  0  1   0 -1  1
                      -1  1  0  -1  0  1  -1  0  0       1 -1  0   1  0 -1   1  0  0
            tnons      0.0000000  0.0000000  0.0000000     0.2500000  0.2500000  0.2500000
                       0.0000000  0.0000000  0.0000000     0.2500000  0.2500000  0.2500000
                       0.0000000  0.0000000  0.0000000     0.2500000  0.2500000  0.2500000
                       0.0000000  0.0000000  0.0000000     0.2500000  0.2500000  0.2500000
                       0.0000000  0.0000000  0.0000000     0.2500000  0.2500000  0.2500000
                       0.0000000  0.0000000  0.0000000     0.2500000  0.2500000  0.2500000
                       0.0000000  0.0000000  0.0000000     0.2500000  0.2500000  0.2500000
                       0.0000000  0.0000000  0.0000000     0.2500000  0.2500000  0.2500000
                       0.0000000  0.0000000  0.0000000     0.2500000  0.2500000  0.2500000
                       0.0000000  0.0000000  0.0000000     0.2500000  0.2500000  0.2500000
                       0.0000000  0.0000000  0.0000000     0.2500000  0.2500000  0.2500000
                       0.0000000  0.0000000  0.0000000     0.2500000  0.2500000  0.2500000
                       0.0000000  0.0000000  0.0000000     0.2500000  0.2500000  0.2500000
                       0.0000000  0.0000000  0.0000000     0.2500000  0.2500000  0.2500000
                       0.0000000  0.0000000  0.0000000     0.2500000  0.2500000  0.2500000
                       0.0000000  0.0000000  0.0000000     0.2500000  0.2500000  0.2500000
                       0.0000000  0.0000000  0.0000000     0.2500000  0.2500000  0.2500000
                       0.0000000  0.0000000  0.0000000     0.2500000  0.2500000  0.2500000
                       0.0000000  0.0000000  0.0000000     0.2500000  0.2500000  0.2500000
                       0.0000000  0.0000000  0.0000000     0.2500000  0.2500000  0.2500000
                       0.0000000  0.0000000  0.0000000     0.2500000  0.2500000  0.2500000
                       0.0000000  0.0000000  0.0000000     0.2500000  0.2500000  0.2500000
                       0.0000000  0.0000000  0.0000000     0.2500000  0.2500000  0.2500000
                       0.0000000  0.0000000  0.0000000     0.2500000  0.2500000  0.2500000
           tolvrs      1.00000000E-08
            typat      1  1
              wtk        0.01172    0.01172    0.01172    0.02344    0.01172    0.01172
                         0.02344    0.01172    0.02344    0.02344    0.01172    0.01172
                         0.02344    0.01172    0.02344    0.02344    0.01172    0.02344
                         0.02344    0.02344    0.01172    0.01172    0.01172    0.02344
                         0.01172    0.02344    0.02344    0.02344    0.01172    0.02344
                         0.02344    0.02344    0.02344    0.01172    0.01172    0.01172
                         0.01172    0.01172    0.02344    0.02344    0.01172    0.02344
                         0.02344    0.02344    0.02344    0.02344    0.01172    0.01172
                         0.01172    0.01172
                       outvars : Printing only first  50 k-points.
           xangst      0.0000000000E+00  0.0000000000E+00  0.0000000000E+00
                       7.2358962032E-01  7.2358962032E-01  7.2358962032E-01
            xcart      0.0000000000E+00  0.0000000000E+00  0.0000000000E+00
                       1.3673862150E+00  1.3673862150E+00  1.3673862150E+00
             xred      0.0000000000E+00  0.0000000000E+00  0.0000000000E+00
                       2.5000000000E-01  2.5000000000E-01  2.5000000000E-01
            znucl       14.00000
 
================================================================================
  

================================================================================

 Suggested references for the acknowledgment of ABINIT usage.

 The users of ABINIT have little formal obligations with respect to the ABINIT group
 (those specified in the GNU General Public License, http://www.gnu.org/copyleft/gpl.txt).
 However, it is common practice in the scientific literature,
 to acknowledge the efforts of people that have made the research possible.
 In this spirit, please find below suggested citations of work written by ABINIT developers,
 corresponding to implementations inside of ABINIT that you have used in the present run.
 Note also that it will be of great value to readers of publications presenting these results,
 to read papers enabling them to understand the theoretical formalism and details
 of the ABINIT implementation.
 For information on why they are suggested, see also https://docs.abinit.org/theory/acknowledgments.
-
- [1] Recent developments in the ABINIT software package.
- Computer Phys. Comm. 205, 106 (2016).
- X.Gonze, F.Jollet, F.Abreu Araujo, D.Adams, B.Amadon, T.Applencourt,
- C.Audouze, J.-M.Beuken, J.Bieder, A.Bokhanchuk, E.Bousquet, F.Bruneval
- D.Caliste, M.Cote, F.Dahm, F.Da Pieve, M.Delaveau, M.Di Gennaro,
- B.Dorado, C.Espejo, G.Geneste, L.Genovese, A.Gerossier, M.Giantomassi,
- Y.Gillet, D.R.Hamann, L.He, G.Jomard, J.Laflamme Janssen, S.Le Roux,
- A.Levitt, A.Lherbier, F.Liu, I.Lukacevic, A.Martin, C.Martins,
- M.J.T.Oliveira, S.Ponce, Y.Pouillon, T.Rangel, G.-M.Rignanese,
- A.H.Romero, B.Rousseau, O.Rubel, A.A.Shukri, M.Stankovski, M.Torrent,
- M.J.Van Setten, B.Van Troeye, M.J.Verstraete, D.Waroquier, J.Wiktor,
- B.Xu, A.Zhou, J.W.Zwanziger.
- Comment: the fourth generic paper describing the ABINIT project.
- Note that a version of this paper, that is not formatted for Computer Phys. Comm. 
- is available at https://www.abinit.org/about/ABINIT16.pdf .
- The licence allows the authors to put it on the Web.
- DOI and bibtex: see https://docs.abinit.org/theory/bibliography/#gonze2016
-
- [2] Optimized norm-conserving Vanderbilt pseudopotentials.
- D.R. Hamann, Phys. Rev. B 88, 085117 (2013).
- Comment: Some pseudopotential generated using the ONCVPSP code were used.
- DOI and bibtex: see https://docs.abinit.org/theory/bibliography/#hamann2013
-
- [3] ABINIT: First-principles approach of materials and nanosystem properties.
- Computer Phys. Comm. 180, 2582-2615 (2009).
- X. Gonze, B. Amadon, P.-M. Anglade, J.-M. Beuken, F. Bottin, P. Boulanger, F. Bruneval,
- D. Caliste, R. Caracas, M. Cote, T. Deutsch, L. Genovese, Ph. Ghosez, M. Giantomassi
- S. Goedecker, D.R. Hamann, P. Hermet, F. Jollet, G. Jomard, S. Leroux, M. Mancini, S. Mazevet,
- M.J.T. Oliveira, G. Onida, Y. Pouillon, T. Rangel, G.-M. Rignanese, D. Sangalli, R. Shaltaf,
- M. Torrent, M.J. Verstraete, G. Zerah, J.W. Zwanziger
- Comment: the third generic paper describing the ABINIT project.
- Note that a version of this paper, that is not formatted for Computer Phys. Comm. 
- is available at https://www.abinit.org/about/ABINIT_CPC_v10.pdf .
- The licence allows the authors to put it on the Web.
- DOI and bibtex: see https://docs.abinit.org/theory/bibliography/#gonze2009
-
- [4] A brief introduction to the ABINIT software package.
- Z. Kristallogr. 220, 558-562 (2005).
- X. Gonze, G.-M. Rignanese, M. Verstraete, J.-M. Beuken, Y. Pouillon, R. Caracas, F. Jollet,
- M. Torrent, G. Zerah, M. Mikami, Ph. Ghosez, M. Veithen, J.-Y. Raty, V. Olevano, F. Bruneval,
- L. Reining, R. Godby, G. Onida, D.R. Hamann, and D.C. Allan.
- Comment: the second generic paper describing the ABINIT project. Note that this paper
- should be cited especially if you are using the GW part of ABINIT, as several authors
- of this part are not in the list of authors of the first or third paper.
- The .pdf of the latter paper is available at https://www.abinit.org/about/zfk_0505-06_558-562.pdf.
- Note that it should not redistributed (Copyright by Oldenburg Wissenshaftverlag,
- the licence allows the authors to put it on the Web).
- DOI and bibtex: see https://docs.abinit.org/theory/bibliography/#gonze2005
-
- And optionally:
-
- [5] First-principles computation of material properties: the ABINIT software project. 
- X. Gonze, J.-M. Beuken, R. Caracas, F. Detraux, M. Fuchs, G.-M. Rignanese, L. Sindic,
- M. Verstraete, G. Zerah, F. Jollet, M. Torrent, A. Roy, M. Mikami, Ph. Ghosez, J.-Y. Raty, D.C. Allan.
- Computational Materials Science 25, 478-492 (2002). http://dx.doi.org/10.1016/S0927-0256(02)00325-7
- Comment: the original paper describing the ABINIT project.
- DOI and bibtex : see https://docs.abinit.org/theory/bibliography/#gonze2002
 Proc.   0 individual time (sec): cpu=          6.7  wall=          6.8
 
 Calculation completed.
.Delivered   1 WARNINGs and   0 COMMENTs to log file.

--- !FinalSummary
program: abinit
version: 8.11.13
start_datetime: Fri Jan 03 15:43:53 2020
end_datetime: Fri Jan 03 15:44:00 2020
overall_cpu_time:          13.5
overall_wall_time:          13.7
exit_requested_by_user: no 
timelimit: 0
pseudos: 
    Si  : 45c393525680abc7b25445b8ec62bf83
usepaw: 0
mpi_procs: 2
omp_threads: 1
num_warnings: 1
num_comments: 0
...
