--------------------------------------------------------------------------
[[16814,1],0]: A high-performance Open MPI point-to-point messaging module
was unable to find any relevant network interfaces:

Module: OpenFabrics (openib)
  Host: abipy

Another transport will be used instead, although this may result in
lower performance.
--------------------------------------------------------------------------
  ABINIT 8.10.3
  
  Give name for formatted input file: 
tspin_3.in
  Give name for formatted output file:
tspin_3.out
  Give root name for generic input files:
tspin_3i
  Give root name for generic output files:
tspin_3o
  Give root name for generic temporary files:
tspin_3

.Version 8.10.3 of ABINIT 
.(MPI version, prepared for a x86_64_linux_gnu5.4 computer) 

.Copyright (C) 1998-2018 ABINIT group . 
 ABINIT comes with ABSOLUTELY NO WARRANTY.
 It is free software, and you are welcome to redistribute it
 under certain conditions (GNU General Public License,
 see ~abinit/COPYING or http://www.gnu.org/copyleft/gpl.txt).

 ABINIT is a project of the Universite Catholique de Louvain,
 Corning Inc. and other collaborators, see ~abinit/doc/developers/contributors.txt .
 Please read https://docs.abinit.org/theory/acknowledgments for suggested
 acknowledgments of the ABINIT effort.
 For more information, see https://www.abinit.org .

.Starting date : Mon 28 Oct 2019.
- ( at 14h32 )
  

 ++++++++++++++++++++++++++++++++++++++++++++++++++++++++++++++++++++++++++++++

 === Build Information === 
  Version       : 8.10.3
  Build target  : x86_64_linux_gnu5.4
  Build date    : 20191016

 === Compiler Suite === 
  C compiler       : gnu5.4
  C++ compiler     : gnu5.4
  Fortran compiler : gnu5.4
  CFLAGS           :  -g -O2 -mtune=native -march=native
  CXXFLAGS         :  -g -O2 -mtune=native -march=native
  FCFLAGS          :  -g -ffree-line-length-none  -fopenmp
  FC_LDFLAGS       : 

 === Optimizations === 
  Debug level        : basic
  Optimization level : standard
  Architecture       : unknown_unknown

 === Multicore === 
  Parallel build : yes
  Parallel I/O   : yes
  openMP support : yes
  GPU support    : no

 === Connectors / Fallbacks === 
  Connectors on : yes
  Fallbacks on  : yes
  DFT flavor    : none
  FFT flavor    : fftw3
  LINALG flavor : atlas
  MATH flavor   : none
  TIMER flavor  : abinit
  TRIO flavor   : netcdf

 === Experimental features === 
  Bindings            : @enable_bindings@
  Exports             : no
  GW double-precision : no

 ++++++++++++++++++++++++++++++++++++++++++++++++++++++++++++++++++++++++++++++


 ++++++++++++++++++++++++++++++++++++++++++++++++++++++++++++++++++++++++++++++
 Default optimizations:
   -O2 -mtune=native -march=native


 Optimizations for 43_ptgroups:
   -O0


 ++++++++++++++++++++++++++++++++++++++++++++++++++++++++++++++++++++++++++++++


 ++++++++++++++++++++++++++++++++++++++++++++++++++++++++++++++++++++++++++++++
 CPP options activated during the build:

                    CC_GNU                   CXX_GNU                    FC_GNU
 
 HAVE_FC_ALLOCATABLE_DT...             HAVE_FC_ASYNC         HAVE_FC_BACKTRACE
 
  HAVE_FC_COMMAND_ARGUMENT      HAVE_FC_COMMAND_LINE        HAVE_FC_CONTIGUOUS
 
           HAVE_FC_CPUTIME              HAVE_FC_EXIT             HAVE_FC_FLUSH
 
             HAVE_FC_GAMMA            HAVE_FC_GETENV   HAVE_FC_IEEE_EXCEPTIONS
 
          HAVE_FC_INT_QUAD             HAVE_FC_IOMSG     HAVE_FC_ISO_C_BINDING
 
  HAVE_FC_ISO_FORTRAN_2008        HAVE_FC_LONG_LINES        HAVE_FC_MOVE_ALLOC
 
           HAVE_FC_PRIVATE         HAVE_FC_PROTECTED         HAVE_FC_STREAM_IO
 
            HAVE_FC_SYSTEM                  HAVE_FFT            HAVE_FFT_FFTW3
 
              HAVE_FFT_MPI           HAVE_FFT_SERIAL          HAVE_FORTRAN2003
 
        HAVE_LIBPAW_ABINIT      HAVE_LIBTETRA_ABINIT               HAVE_LINALG
 
        HAVE_LINALG_SERIAL                  HAVE_MPI                 HAVE_MPI2
 
       HAVE_MPI_IALLREDUCE        HAVE_MPI_IALLTOALL       HAVE_MPI_IALLTOALLV
 
        HAVE_MPI_INTEGER16               HAVE_MPI_IO HAVE_MPI_TYPE_CREATE_S...
 
               HAVE_NETCDF           HAVE_NETCDF_MPI         HAVE_OMP_COLLAPSE
 
               HAVE_OPENMP             HAVE_OS_LINUX         HAVE_TIMER_ABINIT
 
              USE_MACROAVE                                                      
 ++++++++++++++++++++++++++++++++++++++++++++++++++++++++++++++++++++++++++++++

- input  file    -> tspin_3.in
- output file    -> tspin_3.out
- root for input  files -> tspin_3i
- root for output files -> tspin_3o


--- !WARNING
src_file: m_nctk.F90
src_line: 572
message: |
    netcdf lib does not support MPI-IO and: NetCDF: Parallel operation on file opened for non-parallel access
...

  Asked to delete not existent file: __TMP_FILE__

--- !WARNING
src_file: m_nctk.F90
src_line: 592
message: |
    The netcdf library does not support parallel IO, see message above
    Abinit won't be able to produce files in parallel e.g. when paral_kgb==1 is used.
    Action: install a netcdf4+HDF5 library with MPI-IO support.
...

-instrng: 72 lines of input have been read from file tspin_3.in


 Please give name of formatted atomic psp file
 iofn2 : for atom type 1, psp file is ../../../../../Psps_for_tests/26fe.pspnc
  read the values zionpsp=  8.0 , pspcod=   1 , lmax=   2

 inpspheads: deduce mpsang = 3, n1xccc = 2501.
 invars1 : treat image number: 1

 symlatt : the Bravais lattice is tP (primitive tetragonal)
  xred   is defined in input file
 ingeo: takes atomic coordinates from input array xred

 symlatt : the Bravais lattice is tP (primitive tetragonal)
 Shubnikov space group type IV
 symspgr : spgroup=  47  Pm m m   (=D2h^1)
 symspgr : optical characteristics = uniaxial
 However, the axis has not been found. Sorry for this.
 ingeo: angdeg(1:3)=   90.00000000   90.00000000   90.00000000
 invars1 : treat image number: 1

 symlatt : the Bravais lattice is tP (primitive tetragonal)
  xred   is defined in input file
 ingeo: takes atomic coordinates from input array xred

 symlatt : the Bravais lattice is tP (primitive tetragonal)
 Shubnikov space group type IV
 symspgr : spgroup=  47  Pm m m   (=D2h^1)
 symspgr : optical characteristics = uniaxial
 However, the axis has not been found. Sorry for this.
 ingeo: angdeg(1:3)=   90.00000000   90.00000000   90.00000000
 invars1 : treat image number: 1

 symlatt : the Bravais lattice is tP (primitive tetragonal)
  xred   is defined in input file
 ingeo: takes atomic coordinates from input array xred

 symlatt : the Bravais lattice is tP (primitive tetragonal)
 Shubnikov space group type IV
 symspgr : spgroup=  47  Pm m m   (=D2h^1)
 symspgr : optical characteristics = uniaxial
 However, the axis has not been found. Sorry for this.
 ingeo: angdeg(1:3)=   90.00000000   90.00000000   90.00000000
 chkneu : initialized the occupation numbers for occopt=    3
    spin up   values :
  1.00  1.00  1.00  1.00  1.00  1.00  1.00  1.00  0.00  0.00  0.00  0.00
  0.00  0.00  0.00  0.00
    spin down values :
  1.00  1.00  1.00  1.00  1.00  1.00  1.00  1.00  0.00  0.00  0.00  0.00
  0.00  0.00  0.00  0.00
 chkneu : initialized the occupation numbers for occopt=    3
    spin up   values :
  1.00  1.00  1.00  1.00  1.00  1.00  1.00  1.00  0.00  0.00  0.00  0.00
  0.00  0.00  0.00  0.00
    spin down values :
  1.00  1.00  1.00  1.00  1.00  1.00  1.00  1.00  0.00  0.00  0.00  0.00
  0.00  0.00  0.00  0.00
 chkneu : initialized the occupation numbers for occopt=    3
    spin up   values :
  1.00  1.00  1.00  1.00  1.00  1.00  1.00  1.00  0.00  0.00  0.00  0.00
  0.00  0.00  0.00  0.00
    spin down values :
  1.00  1.00  1.00  1.00  1.00  1.00  1.00  1.00  0.00  0.00  0.00  0.00
  0.00  0.00  0.00  0.00
npfft, npband, npspinor and npkpt:     1    1    1    2
mpi_setup: mkmem  undefined in the input file.Use default mkmem  = nkpt
 mpi_setup: With nkpt_me=18 and mkmem  = 18, ground state wf handled in core.
mpi_setup: mkqmem undefined in the input file.Use default mkqmem = nkpt
 mpi_setup: With nkpt_me=18 and mkqmem = 18, ground state wf handled in core.
mpi_setup: mk1mem undefined in the input file.Use default mk1mem = nkpt
 mpi_setup: With nkpt_me=18 and mk1mem = 18, ground state wf handled in core.
 For input ecut=  1.800000E+01 best grid ngfft=      18      18      27
       max ecut=  1.835257E+01

 ==== FFT mesh ====
  FFT mesh divisions ........................    18   18   27
  Augmented FFT divisions ...................    19   19   27
  FFT algorithm .............................   312
  FFT cache size ............................    16
 getmpw: optimal value of mpw= 530
npfft, npband, npspinor and npkpt:     1    1    1    2
mpi_setup: mkmem  undefined in the input file.Use default mkmem  = nkpt
 mpi_setup: With nkpt_me=4 and mkmem  = 4, ground state wf handled in core.
mpi_setup: mkqmem undefined in the input file.Use default mkqmem = nkpt
 mpi_setup: With nkpt_me=4 and mkqmem = 4, ground state wf handled in core.
mpi_setup: mk1mem undefined in the input file.Use default mk1mem = nkpt
 mpi_setup: With nkpt_me=4 and mk1mem = 4, ground state wf handled in core.
 For input ecut=  1.800000E+01 best grid ngfft=      18      18      27
       max ecut=  1.835257E+01

 ==== FFT mesh ====
  FFT mesh divisions ........................    18   18   27
  Augmented FFT divisions ...................    19   19   27
  FFT algorithm .............................   312
  FFT cache size ............................    16
 getmpw: optimal value of mpw= 530
npfft, npband, npspinor and npkpt:     1    1    1    2
mpi_setup: mkmem  undefined in the input file.Use default mkmem  = nkpt
 mpi_setup: With nkpt_me=4 and mkmem  = 4, ground state wf handled in core.
mpi_setup: mkqmem undefined in the input file.Use default mkqmem = nkpt
 mpi_setup: With nkpt_me=4 and mkqmem = 4, ground state wf handled in core.
mpi_setup: mk1mem undefined in the input file.Use default mk1mem = nkpt
 mpi_setup: With nkpt_me=4 and mk1mem = 4, ground state wf handled in core.
 For input ecut=  1.800000E+01 best grid ngfft=      18      18      27
       max ecut=  1.835257E+01

 ==== FFT mesh ====
  FFT mesh divisions ........................    18   18   27
  Augmented FFT divisions ...................    19   19   27
  FFT algorithm .............................   312
  FFT cache size ............................    16
 getmpw: optimal value of mpw= 530

 DATASET    1 : magnetic group, Shubnikov type IV
 Fedorov space group Pm m m (# 47)
 Magnetic Bravais lattice tP_C (primitive tetrag., C-magnetic, #24)

 getdim_nloc : deduce lmnmax  =   8, lnmax  =   2,
                      lmnmaxso=   8, lnmaxso=   2.
memory : analysis of memory needs
================================================================================
 Values of the parameters that define the memory need for DATASET  1.
     intxc =       0    ionmov =       0      iscf =       7    lmnmax =       2
     lnmax =       2     mgfft =      27  mpssoang =       3    mqgrid =    3001
     natom =       2  nloc_mem =       1    nspden =       2   nspinor =       1
    nsppol =       2      nsym =      16    n1xccc =    2501    ntypat =       1
    occopt =       3   xclevel =       1
-    mband =          16        mffmem =           1         mkmem =          18
       mpw =         530          nfft =        8748          nkpt =          18
================================================================================
P This job should need less than                      10.004 Mbytes of memory.
  Rough estimation (10% accuracy) of disk space for files :
_ WF disk file :      4.660 Mbytes ; DEN or POT disk file :      0.135 Mbytes.
================================================================================

 Biggest array : cg(disk), with      4.6602 MBytes.
 memana : allocated an array of      4.660 Mbytes, for testing purposes.
 memana: allocated      10.004Mbytes, for testing purposes. 
 The job will continue.

 DATASET    2 : magnetic group, Shubnikov type IV
 Fedorov space group Pm m m (# 47)
 Magnetic Bravais lattice tP_C (primitive tetrag., C-magnetic, #24)

 getdim_nloc : deduce lmnmax  =   8, lnmax  =   2,
                      lmnmaxso=   8, lnmaxso=   2.
memory : analysis of memory needs
================================================================================
 Values of the parameters that define the memory need for DATASET  2.
     intxc =       0    ionmov =       0      iscf =      -3    lmnmax =       2
     lnmax =       2     mgfft =      27  mpssoang =       3    mqgrid =    3001
     natom =       2  nloc_mem =       1    nspden =       2   nspinor =       1
    nsppol =       2      nsym =      16    n1xccc =    2501    ntypat =       1
    occopt =       3   xclevel =       1
-    mband =          16        mffmem =           1         mkmem =           4
       mpw =         530          nfft =        8748          nkpt =           4
================================================================================
P This job should need less than                       4.092 Mbytes of memory.
  Rough estimation (10% accuracy) of disk space for files :
_ WF disk file :      1.037 Mbytes ; DEN or POT disk file :      0.135 Mbytes.
================================================================================

 Biggest array : cg(disk), with      1.0372 MBytes.
 memana : allocated an array of      1.037 Mbytes, for testing purposes.
 memana: allocated       4.092Mbytes, for testing purposes. 
 The job will continue.

 DATASET    3 : magnetic group, Shubnikov type IV
 Fedorov space group Pm m m (# 47)
 Magnetic Bravais lattice tP_C (primitive tetrag., C-magnetic, #24)

 getdim_nloc : deduce lmnmax  =   8, lnmax  =   2,
                      lmnmaxso=   8, lnmaxso=   2.
memory : analysis of memory needs
================================================================================
 Values of the parameters that define the memory need for DATASET  3.
     intxc =       0    ionmov =       0      iscf =      -3    lmnmax =       2
     lnmax =       2     mgfft =      27  mpssoang =       3    mqgrid =    3001
     natom =       2  nloc_mem =       1    nspden =       2   nspinor =       1
    nsppol =       2      nsym =      16    n1xccc =    2501    ntypat =       1
    occopt =       3   xclevel =       1
-    mband =          16        mffmem =           1         mkmem =           4
       mpw =         530          nfft =        8748          nkpt =           4
================================================================================
P This job should need less than                       4.092 Mbytes of memory.
  Rough estimation (10% accuracy) of disk space for files :
_ WF disk file :      1.037 Mbytes ; DEN or POT disk file :      0.135 Mbytes.
================================================================================

 Biggest array : cg(disk), with      1.0372 MBytes.
 memana : allocated an array of      1.037 Mbytes, for testing purposes.
 memana: allocated       4.092Mbytes, for testing purposes. 
 The job will continue.
--------------------------------------------------------------------------------
------------- Echo of variables that govern the present computation ------------
--------------------------------------------------------------------------------
-
- outvars: echo of selected default values                                      
-   iomode0 =  0 , fftalg0 =312 , wfoptalg0 =  0
-
- outvars: echo of global parameters not present in the input file              
-  max_nthreads =    1
-
 -outvars: echo values of preprocessed input variables --------
 
 These variables are accessible in NetCDF format (tspin_3o_OUT.nc)

            acell      6.6000000000E+00  6.6000000000E+00  6.6000000000E+00 Bohr
              amu      5.58470000E+01
             ecut      1.80000000E+01 Hartree
-          fftalg         312
           getden1          0
           getden2          1
           getden3          1
           iatsph2       1
           iatsph3       2
             iscf1          7
             iscf2         -3
             iscf3         -3
           jdtset        1    2    3
              kpt1     8.33333333E-02  8.33333333E-02  1.25000000E-01
                       2.50000000E-01  8.33333333E-02  1.25000000E-01
                       4.16666667E-01  8.33333333E-02  1.25000000E-01
                       8.33333333E-02  2.50000000E-01  1.25000000E-01
                       2.50000000E-01  2.50000000E-01  1.25000000E-01
                       4.16666667E-01  2.50000000E-01  1.25000000E-01
                       8.33333333E-02  4.16666667E-01  1.25000000E-01
                       2.50000000E-01  4.16666667E-01  1.25000000E-01
                       4.16666667E-01  4.16666667E-01  1.25000000E-01
                       8.33333333E-02  8.33333333E-02  3.75000000E-01
                       2.50000000E-01  8.33333333E-02  3.75000000E-01
                       4.16666667E-01  8.33333333E-02  3.75000000E-01
                       8.33333333E-02  2.50000000E-01  3.75000000E-01
                       2.50000000E-01  2.50000000E-01  3.75000000E-01
                       4.16666667E-01  2.50000000E-01  3.75000000E-01
                       8.33333333E-02  4.16666667E-01  3.75000000E-01
                       2.50000000E-01  4.16666667E-01  3.75000000E-01
                       4.16666667E-01  4.16666667E-01  3.75000000E-01
              kpt2     1.66666667E-01  1.66666667E-01  2.50000000E-01
                       5.00000000E-01  1.66666667E-01  2.50000000E-01
                       1.66666667E-01  5.00000000E-01  2.50000000E-01
                       5.00000000E-01  5.00000000E-01  2.50000000E-01
              kpt3     1.66666667E-01  1.66666667E-01  2.50000000E-01
                       5.00000000E-01  1.66666667E-01  2.50000000E-01
                       1.66666667E-01  5.00000000E-01  2.50000000E-01
                       5.00000000E-01  5.00000000E-01  2.50000000E-01
         kptrlatt1       6    0    0      0    6    0      0    0    4
         kptrlatt2       3    0    0      0    3    0      0    0    2
         kptrlatt3       3    0    0      0    3    0      0    0    2
          kptrlen1     2.64000000E+01
          kptrlen2     1.32000000E+01
          kptrlen3     1.32000000E+01
P           mkmem1         18
P           mkmem2          4
P           mkmem3          4
            natom           2
           natsph2       1
           natsph3       1
            nband1         16
            nband2         16
            nband3         16
           nbdbuf1          0
           nbdbuf2          2
           nbdbuf3          2
           ndtset           3
            ngfft          18      18      27
             nkpt1         18
             nkpt2          4
             nkpt3          4
           nspden           2
           nsppol           2
            nstep          70
             nsym          16
           ntypat           1
              occ1     1.000000  1.000000  1.000000  1.000000  1.000000  1.000000
                       1.000000  1.000000  0.000000  0.000000  0.000000  0.000000
                       0.000000  0.000000  0.000000  0.000000
                       1.000000  1.000000  1.000000  1.000000  1.000000  1.000000
                       1.000000  1.000000  0.000000  0.000000  0.000000  0.000000
                       0.000000  0.000000  0.000000  0.000000
                       1.000000  1.000000  1.000000  1.000000  1.000000  1.000000
                       1.000000  1.000000  0.000000  0.000000  0.000000  0.000000
                       0.000000  0.000000  0.000000  0.000000
                       1.000000  1.000000  1.000000  1.000000  1.000000  1.000000
                       1.000000  1.000000  0.000000  0.000000  0.000000  0.000000
                       0.000000  0.000000  0.000000  0.000000
                       1.000000  1.000000  1.000000  1.000000  1.000000  1.000000
                       1.000000  1.000000  0.000000  0.000000  0.000000  0.000000
                       0.000000  0.000000  0.000000  0.000000
                       1.000000  1.000000  1.000000  1.000000  1.000000  1.000000
                       1.000000  1.000000  0.000000  0.000000  0.000000  0.000000
                       0.000000  0.000000  0.000000  0.000000
                       1.000000  1.000000  1.000000  1.000000  1.000000  1.000000
                       1.000000  1.000000  0.000000  0.000000  0.000000  0.000000
                       0.000000  0.000000  0.000000  0.000000
                       1.000000  1.000000  1.000000  1.000000  1.000000  1.000000
                       1.000000  1.000000  0.000000  0.000000  0.000000  0.000000
                       0.000000  0.000000  0.000000  0.000000
                       1.000000  1.000000  1.000000  1.000000  1.000000  1.000000
                       1.000000  1.000000  0.000000  0.000000  0.000000  0.000000
                       0.000000  0.000000  0.000000  0.000000
                       1.000000  1.000000  1.000000  1.000000  1.000000  1.000000
                       1.000000  1.000000  0.000000  0.000000  0.000000  0.000000
                       0.000000  0.000000  0.000000  0.000000
                       1.000000  1.000000  1.000000  1.000000  1.000000  1.000000
                       1.000000  1.000000  0.000000  0.000000  0.000000  0.000000
                       0.000000  0.000000  0.000000  0.000000
                       1.000000  1.000000  1.000000  1.000000  1.000000  1.000000
                       1.000000  1.000000  0.000000  0.000000  0.000000  0.000000
                       0.000000  0.000000  0.000000  0.000000
                       1.000000  1.000000  1.000000  1.000000  1.000000  1.000000
                       1.000000  1.000000  0.000000  0.000000  0.000000  0.000000
                       0.000000  0.000000  0.000000  0.000000
                       1.000000  1.000000  1.000000  1.000000  1.000000  1.000000
                       1.000000  1.000000  0.000000  0.000000  0.000000  0.000000
                       0.000000  0.000000  0.000000  0.000000
                       1.000000  1.000000  1.000000  1.000000  1.000000  1.000000
                       1.000000  1.000000  0.000000  0.000000  0.000000  0.000000
                       0.000000  0.000000  0.000000  0.000000
                       1.000000  1.000000  1.000000  1.000000  1.000000  1.000000
                       1.000000  1.000000  0.000000  0.000000  0.000000  0.000000
                       0.000000  0.000000  0.000000  0.000000
                       1.000000  1.000000  1.000000  1.000000  1.000000  1.000000
                       1.000000  1.000000  0.000000  0.000000  0.000000  0.000000
                       0.000000  0.000000  0.000000  0.000000
                       1.000000  1.000000  1.000000  1.000000  1.000000  1.000000
                       1.000000  1.000000  0.000000  0.000000  0.000000  0.000000
                       0.000000  0.000000  0.000000  0.000000
                       1.000000  1.000000  1.000000  1.000000  1.000000  1.000000
                       1.000000  1.000000  0.000000  0.000000  0.000000  0.000000
                       0.000000  0.000000  0.000000  0.000000
                       1.000000  1.000000  1.000000  1.000000  1.000000  1.000000
                       1.000000  1.000000  0.000000  0.000000  0.000000  0.000000
                       0.000000  0.000000  0.000000  0.000000
                       1.000000  1.000000  1.000000  1.000000  1.000000  1.000000
                       1.000000  1.000000  0.000000  0.000000  0.000000  0.000000
                       0.000000  0.000000  0.000000  0.000000
                       1.000000  1.000000  1.000000  1.000000  1.000000  1.000000
                       1.000000  1.000000  0.000000  0.000000  0.000000  0.000000
                       0.000000  0.000000  0.000000  0.000000
                       1.000000  1.000000  1.000000  1.000000  1.000000  1.000000
                       1.000000  1.000000  0.000000  0.000000  0.000000  0.000000
                       0.000000  0.000000  0.000000  0.000000
                       1.000000  1.000000  1.000000  1.000000  1.000000  1.000000
                       1.000000  1.000000  0.000000  0.000000  0.000000  0.000000
                       0.000000  0.000000  0.000000  0.000000
                       1.000000  1.000000  1.000000  1.000000  1.000000  1.000000
                       1.000000  1.000000  0.000000  0.000000  0.000000  0.000000
                       0.000000  0.000000  0.000000  0.000000
                       1.000000  1.000000  1.000000  1.000000  1.000000  1.000000
                       1.000000  1.000000  0.000000  0.000000  0.000000  0.000000
                       0.000000  0.000000  0.000000  0.000000
                       1.000000  1.000000  1.000000  1.000000  1.000000  1.000000
                       1.000000  1.000000  0.000000  0.000000  0.000000  0.000000
                       0.000000  0.000000  0.000000  0.000000
                       1.000000  1.000000  1.000000  1.000000  1.000000  1.000000
                       1.000000  1.000000  0.000000  0.000000  0.000000  0.000000
                       0.000000  0.000000  0.000000  0.000000
                       1.000000  1.000000  1.000000  1.000000  1.000000  1.000000
                       1.000000  1.000000  0.000000  0.000000  0.000000  0.000000
                       0.000000  0.000000  0.000000  0.000000
                       1.000000  1.000000  1.000000  1.000000  1.000000  1.000000
                       1.000000  1.000000  0.000000  0.000000  0.000000  0.000000
                       0.000000  0.000000  0.000000  0.000000
                       1.000000  1.000000  1.000000  1.000000  1.000000  1.000000
                       1.000000  1.000000  0.000000  0.000000  0.000000  0.000000
                       0.000000  0.000000  0.000000  0.000000
                       1.000000  1.000000  1.000000  1.000000  1.000000  1.000000
                       1.000000  1.000000  0.000000  0.000000  0.000000  0.000000
                       0.000000  0.000000  0.000000  0.000000
                       1.000000  1.000000  1.000000  1.000000  1.000000  1.000000
                       1.000000  1.000000  0.000000  0.000000  0.000000  0.000000
                       0.000000  0.000000  0.000000  0.000000
                       1.000000  1.000000  1.000000  1.000000  1.000000  1.000000
                       1.000000  1.000000  0.000000  0.000000  0.000000  0.000000
                       0.000000  0.000000  0.000000  0.000000
                       1.000000  1.000000  1.000000  1.000000  1.000000  1.000000
                       1.000000  1.000000  0.000000  0.000000  0.000000  0.000000
                       0.000000  0.000000  0.000000  0.000000
                       1.000000  1.000000  1.000000  1.000000  1.000000  1.000000
                       1.000000  1.000000  0.000000  0.000000  0.000000  0.000000
                       0.000000  0.000000  0.000000  0.000000
              occ2     1.000000  1.000000  1.000000  1.000000  1.000000  1.000000
                       1.000000  1.000000  0.000000  0.000000  0.000000  0.000000
                       0.000000  0.000000  0.000000  0.000000
                       1.000000  1.000000  1.000000  1.000000  1.000000  1.000000
                       1.000000  1.000000  0.000000  0.000000  0.000000  0.000000
                       0.000000  0.000000  0.000000  0.000000
                       1.000000  1.000000  1.000000  1.000000  1.000000  1.000000
                       1.000000  1.000000  0.000000  0.000000  0.000000  0.000000
                       0.000000  0.000000  0.000000  0.000000
                       1.000000  1.000000  1.000000  1.000000  1.000000  1.000000
                       1.000000  1.000000  0.000000  0.000000  0.000000  0.000000
                       0.000000  0.000000  0.000000  0.000000
                       1.000000  1.000000  1.000000  1.000000  1.000000  1.000000
                       1.000000  1.000000  0.000000  0.000000  0.000000  0.000000
                       0.000000  0.000000  0.000000  0.000000
                       1.000000  1.000000  1.000000  1.000000  1.000000  1.000000
                       1.000000  1.000000  0.000000  0.000000  0.000000  0.000000
                       0.000000  0.000000  0.000000  0.000000
                       1.000000  1.000000  1.000000  1.000000  1.000000  1.000000
                       1.000000  1.000000  0.000000  0.000000  0.000000  0.000000
                       0.000000  0.000000  0.000000  0.000000
                       1.000000  1.000000  1.000000  1.000000  1.000000  1.000000
                       1.000000  1.000000  0.000000  0.000000  0.000000  0.000000
                       0.000000  0.000000  0.000000  0.000000
              occ3     1.000000  1.000000  1.000000  1.000000  1.000000  1.000000
                       1.000000  1.000000  0.000000  0.000000  0.000000  0.000000
                       0.000000  0.000000  0.000000  0.000000
                       1.000000  1.000000  1.000000  1.000000  1.000000  1.000000
                       1.000000  1.000000  0.000000  0.000000  0.000000  0.000000
                       0.000000  0.000000  0.000000  0.000000
                       1.000000  1.000000  1.000000  1.000000  1.000000  1.000000
                       1.000000  1.000000  0.000000  0.000000  0.000000  0.000000
                       0.000000  0.000000  0.000000  0.000000
                       1.000000  1.000000  1.000000  1.000000  1.000000  1.000000
                       1.000000  1.000000  0.000000  0.000000  0.000000  0.000000
                       0.000000  0.000000  0.000000  0.000000
                       1.000000  1.000000  1.000000  1.000000  1.000000  1.000000
                       1.000000  1.000000  0.000000  0.000000  0.000000  0.000000
                       0.000000  0.000000  0.000000  0.000000
                       1.000000  1.000000  1.000000  1.000000  1.000000  1.000000
                       1.000000  1.000000  0.000000  0.000000  0.000000  0.000000
                       0.000000  0.000000  0.000000  0.000000
                       1.000000  1.000000  1.000000  1.000000  1.000000  1.000000
                       1.000000  1.000000  0.000000  0.000000  0.000000  0.000000
                       0.000000  0.000000  0.000000  0.000000
                       1.000000  1.000000  1.000000  1.000000  1.000000  1.000000
                       1.000000  1.000000  0.000000  0.000000  0.000000  0.000000
                       0.000000  0.000000  0.000000  0.000000
           occopt           3
           prtdos1          1
           prtdos2          3
           prtdos3          3
           ratsph1     2.00000000E+00 Bohr
           ratsph2     2.40000000E+00 Bohr
           ratsph3     2.40000000E+00 Bohr
            rprim      5.0000000000E-01 -5.0000000000E-01  0.0000000000E+00
                       5.0000000000E-01  5.0000000000E-01  0.0000000000E+00
                       0.0000000000E+00  0.0000000000E+00  1.0000000000E+00
           shiftk      5.00000000E-01  5.00000000E-01  5.00000000E-01
          spgroup          47
           spinat      0.0000000000E+00  0.0000000000E+00  4.0000000000E+00
                       0.0000000000E+00  0.0000000000E+00 -4.0000000000E+00
           symafm        1   -1    1   -1    1   -1    1   -1    1   -1
                         1   -1    1   -1    1   -1
           symrel      1  0  0   0  1  0   0  0  1       1  0  0   0  1  0   0  0  1
                      -1  0  0   0 -1  0   0  0 -1      -1  0  0   0 -1  0   0  0 -1
                      -1  0  0   0  1  0   0  0 -1      -1  0  0   0  1  0   0  0 -1
                       1  0  0   0 -1  0   0  0  1       1  0  0   0 -1  0   0  0  1
                      -1  0  0   0 -1  0   0  0  1      -1  0  0   0 -1  0   0  0  1
                       1  0  0   0  1  0   0  0 -1       1  0  0   0  1  0   0  0 -1
                       1  0  0   0 -1  0   0  0 -1       1  0  0   0 -1  0   0  0 -1
                      -1  0  0   0  1  0   0  0  1      -1  0  0   0  1  0   0  0  1
            tnons      0.0000000  0.0000000  0.0000000     0.5000000  0.0000000  0.5000000
                       0.0000000  0.0000000  0.0000000     0.5000000  0.0000000  0.5000000
                       0.0000000  0.0000000  0.0000000     0.5000000  0.0000000  0.5000000
                       0.0000000  0.0000000  0.0000000     0.5000000  0.0000000  0.5000000
                       0.0000000  0.0000000  0.0000000     0.5000000  0.0000000  0.5000000
                       0.0000000  0.0000000  0.0000000     0.5000000  0.0000000  0.5000000
                       0.0000000  0.0000000  0.0000000     0.5000000  0.0000000  0.5000000
                       0.0000000  0.0000000  0.0000000     0.5000000  0.0000000  0.5000000
           tolwfr      1.00000000E-07
            typat      1  1
              wtk1       0.05556    0.05556    0.05556    0.05556    0.05556    0.05556
                         0.05556    0.05556    0.05556    0.05556    0.05556    0.05556
                         0.05556    0.05556    0.05556    0.05556    0.05556    0.05556
              wtk2       0.44444    0.22222    0.22222    0.11111
              wtk3       0.44444    0.22222    0.22222    0.11111
           xangst      0.0000000000E+00  0.0000000000E+00  0.0000000000E+00
                       8.7314239417E-01 -8.7314239417E-01  1.7462847883E+00
            xcart      0.0000000000E+00  0.0000000000E+00  0.0000000000E+00
                       1.6500000000E+00 -1.6500000000E+00  3.3000000000E+00
             xred      0.0000000000E+00  0.0000000000E+00  0.0000000000E+00
                       5.0000000000E-01  0.0000000000E+00  5.0000000000E-01
            znucl       26.00000

================================================================================

 chkinp: Checking input parameters for consistency, jdtset=   1.

 chkinp: Checking input parameters for consistency, jdtset=   2.

 chkinp: Checking input parameters for consistency, jdtset=   3.
 DATA TYPE INFORMATION: 
 REAL:      Data type name: REAL(DP) 
            Kind value:      8
            Precision:      15
            Smallest nonnegligible quantity relative to 1:  0.22204460E-15
            Smallest positive number:                       0.22250739-307
            Largest representable number:                   0.17976931+309
 INTEGER:   Data type name: INTEGER(default) 
            Kind value: 4
            Bit size:   32
            Largest representable number: 2147483647
 LOGICAL:   Data type name: LOGICAL 
            Kind value: 4
 CHARACTER: Data type name: CHARACTER             Kind value: 1

  ==== OpenMP parallelism is ON ====
- Max_threads:       1
- Num_threads:       1
- Num_procs:         2
- Dynamic:           F
- Nested:            F
 
  ==== Using MPI-2 specifications ==== 
  MPI-IO support is ON
  xmpi_tag_ub ................   2147483647
  xmpi_bsize_ch ..............            1
  xmpi_bsize_int .............            4
  xmpi_bsize_sp ..............            4
  xmpi_bsize_dp ..............            8
  xmpi_bsize_spc .............            8
  xmpi_bsize_dpc .............           16
  xmpio_bsize_frm ............            4
  xmpi_address_kind ..........            8
  xmpi_offset_kind ...........            8
  MPI_WTICK ..................    9.9999999999999995E-007

================================================================================
== DATASET  1 ==================================================================
-   nproc =    2


--- !COMMENT
src_file: m_xgScalapack.F90
src_line: 251
message: |
    xgScalapack in auto mode
...


 getdim_nloc : deduce lmnmax  =   8, lnmax  =   2,
                      lmnmaxso=   8, lnmaxso=   2.
 Exchange-correlation functional for the present dataset will be:
  LDA: new Teter (4/93) with spin-polarized option - ixc=1
 Citation for XC functional:
  S. Goedecker, M. Teter, J. Huetter, PRB 54, 1703 (1996)

 Unit cell volume ucvol=  1.4374800E+02 bohr^3
 Angles (23,13,12)=  9.00000000E+01  9.00000000E+01  9.00000000E+01 degrees

 getcut: wavevector=  0.0000  0.0000  0.0000  ngfft=  18  18  27
         ecut(hartree)=     18.000   => boxcut(ratio)=   2.01949
 kpgio: loop on k-points done in parallel
- pspini: atom type   1  psp file is ../../../../../Psps_for_tests/26fe.pspnc
- pspatm: opening atomic psp file    ../../../../../Psps_for_tests/26fe.pspnc
-  Troullier-Martins psp for element  Fe        Thu Oct 27 17:35:05 EDT 1994
- 26.00000   8.00000    940714                znucl, zion, pspdat
    1    1    2    0      2001   0.00000      pspcod,pspxc,lmax,lloc,mmax,r2well
    0   4.333  10.868    0   2.2918558        l,e99.0,e99.9,nproj,rcpsp
   0.00000000   0.00000000   0.00000000   0.00000000     rms, ekb1, ekb2, epsatm
    1   1.213   4.197    1   2.8345121        l,e99.0,e99.9,nproj,rcpsp
   0.00000000   0.00000000   0.00000000   0.00000000     rms, ekb1, ekb2, epsatm
    2  18.664  23.972    1   2.2918558        l,e99.0,e99.9,nproj,rcpsp
   0.00000000   0.00000000   0.00000000   0.00000000     rms, ekb1, ekb2, epsatm
    1.56404770202776    2.06158206779471    6.88331421535388   rchrg,fchrg,qchrg
  pspatm : epsatm=   62.03296659
         --- l  ekb(1:nproj) -->
             1    1.561134
             2   -8.115829
 pspatm: atomic psp has been read  and splines computed

   1.98505493E+03                                ecore*ucvol(ha*bohr**3)
 ==== Info on pseudopotentials ====
  Norm-conserving pseudopotentials
  Number of pseudopotentials ..    1
  Number of types of atoms   ..    1
  Scalar calculation (no spin-orbit term)
  Nonlocal part applied using Legendre polynomials
  Max number of non-local projectors over l and type   1
  Highest angular momentum +1 .......   3
  Max number of (l,n)   components ..   2
  Max number of (l,m,n) components ..   2

 Pseudo-Core Charge Info: 
   Number of radial points for pseudo-core charge .. 2501
   XC core-correction treatment (optnlxccc) ........    1
   Radius for pseudo-core charge for each type ..... 

  - Atom type    1 has pseudo-core radius ..  4.6921

 Info on the Q-grid used for form factors in spline form: 
   Number of q-points for radial functions ffspl ..   3001
   Number of q-points for vlspl ...................   3001
   vloc is computed in Reciprocal Space
   model core charge treated in real-space

  XC functional for type 1 is 1
  Pseudo valence available: no

 newkpt: spin channel isppol2 =     1
 wfconv:    16 bands initialized randomly with npw=   530, for ikpt=     1
 wfconv:    16 bands initialized randomly with npw=   529, for ikpt=     2
 wfconv:    16 bands initialized randomly with npw=   525, for ikpt=     3
 wfconv:    16 bands initialized randomly with npw=   529, for ikpt=     4
 wfconv:    16 bands initialized randomly with npw=   528, for ikpt=     5
 wfconv:    16 bands initialized randomly with npw=   519, for ikpt=     6
 wfconv:    16 bands initialized randomly with npw=   525, for ikpt=     7
 wfconv:    16 bands initialized randomly with npw=   519, for ikpt=     8
 wfconv:    16 bands initialized randomly with npw=   517, for ikpt=     9
 wfconv:    16 bands initialized randomly with npw=   529, for ikpt=    10
 wfconv:    16 bands initialized randomly with npw=   528, for ikpt=    11
 wfconv:    16 bands initialized randomly with npw=   522, for ikpt=    12
 wfconv:    16 bands initialized randomly with npw=   528, for ikpt=    13
 wfconv:    16 bands initialized randomly with npw=   527, for ikpt=    14
 wfconv:    16 bands initialized randomly with npw=   519, for ikpt=    15
 wfconv:    16 bands initialized randomly with npw=   522, for ikpt=    16
 wfconv:    16 bands initialized randomly with npw=   519, for ikpt=    17
 wfconv:    16 bands initialized randomly with npw=   520, for ikpt=    18
 newkpt: spin channel isppol2 =     2
_setup2: Arith. and geom. avg. npw (full set) are     524.167     524.148
 initro: for itypat=  1, take decay length=      0.8000,
 initro: indeed, coreel=     18.0000, nval=  8 and densty=  0.0000E+00.

================================================================================

 getcut: wavevector=  0.0000  0.0000  0.0000  ngfft=  18  18  27
         ecut(hartree)=     18.000   => boxcut(ratio)=   2.01949

 ITER STEP NUMBER     1
 vtorho : nnsclo_now=2, note that nnsclo,dbl_nnsclo,istep=0 0 1
 newocc: new Fermi energy is      -0.653797 , with nelect=     16.000000
  Number of bissection calls =  48
 newocc : computed new occupation numbers for occopt= 3
  (1) spin up   values
 1.000 1.000 1.000 1.000 0.999 0.986 0.969 0.312 0.178 0.068 0.001 0.000
 0.000 0.000 0.000 0.000
 1.000 1.000 1.000 1.000 1.000 0.981 0.861 0.824 0.495 0.138 0.000 0.000
 0.000 0.000 0.000 0.000
 1.000 1.000 1.000 1.000 1.000 0.990 0.973 0.588 0.464 0.337 0.000 0.000
 0.000 0.000 0.000 0.000
 1.000 1.000 1.000 1.000 1.000 0.944 0.869 0.584 0.355 0.055 0.000 0.000
 0.000 0.000 0.000 0.000
 1.000 1.000 1.000 1.000 1.000 0.934 0.831 0.743 0.619 0.468 0.000 0.000
 0.000 0.000 0.000 0.000
 1.000 1.000 1.000 1.000 0.999 0.972 0.902 0.731 0.440 0.129 0.000 0.000
 0.000 0.000 0.000 0.000
 1.000 1.000 1.000 1.000 1.000 0.960 0.831 0.500 0.076 0.001 0.000 0.000
 0.000 0.000 0.000 0.000
 1.000 1.000 1.000 1.000 1.000 0.861 0.785 0.605 0.399 0.012 0.000 0.000
 0.000 0.000 0.000 0.000
 1.000 1.000 1.000 1.000 0.990 0.960 0.915 0.708 0.458 0.002 0.000 0.000
 0.000 0.000 0.000 0.000
 1.000 1.000 1.000 1.000 0.999 0.994 0.968 0.837 0.509 0.196 0.000 0.000
 0.000 0.000 0.000 0.000
 1.000 1.000 1.000 1.000 1.000 0.982 0.902 0.806 0.480 0.188 0.000 0.000
 0.000 0.000 0.000 0.000
 1.000 1.000 1.000 1.000 1.000 0.934 0.754 0.287 0.144 0.062 0.000 0.000
 0.000 0.000 0.000 0.000
 1.000 1.000 1.000 1.000 1.000 0.989 0.936 0.819 0.687 0.299 0.000 0.000
 0.000 0.000 0.000 0.000
 1.000 1.000 1.000 1.000 1.000 0.930 0.819 0.748 0.506 0.343 0.000 0.000
 0.000 0.000 0.000 0.000
 1.000 1.000 1.000 1.000 0.999 0.737 0.606 0.377 0.128 0.002 0.000 0.000
 0.000 0.000 0.000 0.000
 1.000 1.000 1.000 1.000 1.000 0.987 0.955 0.847 0.522 0.217 0.000 0.000
 0.000 0.000 0.000 0.000
 1.000 1.000 1.000 1.000 1.000 0.886 0.764 0.717 0.701 0.061 0.000 0.000
 0.000 0.000 0.000 0.000
 1.000 1.000 1.000 1.000 0.986 0.906 0.841 0.479 0.109 0.006 0.000 0.000
 0.000 0.000 0.000 0.000
  (2) spin down values
 1.000 1.000 1.000 1.000 0.999 0.988 0.972 0.318 0.188 0.075 0.001 0.000
 0.000 0.000 0.000 0.000
 1.000 1.000 1.000 1.000 1.000 0.982 0.868 0.817 0.458 0.041 0.000 0.000
 0.000 0.000 0.000 0.000
 1.000 1.000 1.000 1.000 1.000 0.990 0.976 0.625 0.487 0.406 0.000 0.000
 0.000 0.000 0.000 0.000
 1.000 1.000 1.000 1.000 1.000 0.952 0.864 0.597 0.357 0.032 0.000 0.000
 0.000 0.000 0.000 0.000
 1.000 1.000 1.000 1.000 1.000 0.938 0.809 0.708 0.600 0.460 0.000 0.000
 0.000 0.000 0.000 0.000
 1.000 1.000 1.000 1.000 0.999 0.978 0.847 0.763 0.645 0.077 0.000 0.000
 0.000 0.000 0.000 0.000
 1.000 1.000 1.000 1.000 1.000 0.966 0.802 0.492 0.105 0.014 0.000 0.000
 0.000 0.000 0.000 0.000
 1.000 1.000 1.000 1.000 1.000 0.851 0.806 0.740 0.103 0.051 0.000 0.000
 0.000 0.000 0.000 0.000
 1.000 1.000 1.000 1.000 0.982 0.964 0.948 0.820 0.718 0.020 0.000 0.000
 0.000 0.000 0.000 0.000
 1.000 1.000 1.000 1.000 0.999 0.994 0.970 0.821 0.536 0.198 0.000 0.000
 0.000 0.000 0.000 0.000
 1.000 1.000 1.000 1.000 1.000 0.981 0.876 0.771 0.459 0.179 0.000 0.000
 0.000 0.000 0.000 0.000
 1.000 1.000 1.000 1.000 1.000 0.940 0.829 0.292 0.255 0.051 0.000 0.000
 0.000 0.000 0.000 0.000
 1.000 1.000 1.000 1.000 0.999 0.991 0.942 0.834 0.698 0.331 0.000 0.000
 0.000 0.000 0.000 0.000
 1.000 1.000 1.000 1.000 1.000 0.928 0.836 0.713 0.556 0.436 0.000 0.000
 0.000 0.000 0.000 0.000
 1.000 1.000 1.000 1.000 0.999 0.684 0.602 0.382 0.238 0.000 0.000 0.000
 0.000 0.000 0.000 0.000
 1.000 1.000 1.000 1.000 1.000 0.987 0.939 0.847 0.486 0.138 0.000 0.000
 0.000 0.000 0.000 0.000
 1.000 1.000 1.000 1.000 1.000 0.870 0.771 0.713 0.683 0.074 0.000 0.000
 0.000 0.000 0.000 0.000
 1.000 1.000 1.000 1.000 0.985 0.937 0.814 0.359 0.132 0.002 0.000 0.000
 0.000 0.000 0.000 0.000
mkrho: echo density (plane-wave part only)
 Total charge density [el/Bohr^3]
      Maximum=    9.7511E-01  at reduced coord.    0.5000    0.0000    0.6296
      Minimum=    4.5725E-04  at reduced coord.    0.0000    0.0000    0.0000
   Integrated=    1.6000E+01
 Spin up density      [el/Bohr^3]
      Maximum=    5.7072E-01  at reduced coord.    0.8333    0.9444    0.0000
      Minimum=    2.4381E-04  at reduced coord.    0.0000    0.0000    0.0000
   Integrated=    7.9863E+00
 Spin down density    [el/Bohr^3]
      Maximum=    5.7341E-01  at reduced coord.    0.6667    0.9444    0.5185
      Minimum=    2.1345E-04  at reduced coord.    0.0000    0.0000    0.0000
   Integrated=    8.0137E+00
 Magnetization (spin up - spin down) [el/Bohr^3]
      Maximum=    2.1602E-01  at reduced coord.    0.8889    0.8889    0.0000
      Minimum=   -2.2051E-01  at reduced coord.    0.3889    0.1111    0.4815
   Integrated=   -2.7409E-02
 Relative magnetization (=zeta, between -1 and 1)
      Maximum=    2.5680E-01  at reduced coord.    0.7778    0.7222    0.0000
      Minimum=   -2.6286E-01  at reduced coord.    0.2778    0.2778    0.4815
 Total charge density [el/Bohr^3]
      Maximum=    9.7511E-01  at reduced coord.    0.5000    0.0000    0.6296
      Minimum=    4.5725E-04  at reduced coord.    0.0000    0.0000    0.0000
   Integrated=    1.6000E+01
 Spin up density      [el/Bohr^3]
      Maximum=    5.7072E-01  at reduced coord.    0.8333    0.9444    0.0000
      Minimum=    2.4381E-04  at reduced coord.    0.0000    0.0000    0.0000
   Integrated=    7.9863E+00
 Spin down density    [el/Bohr^3]
      Maximum=    5.7341E-01  at reduced coord.    0.6667    0.9444    0.5185
      Minimum=    2.1345E-04  at reduced coord.    0.0000    0.0000    0.0000
   Integrated=    8.0137E+00
 Magnetization (spin up - spin down) [el/Bohr^3]
      Maximum=    2.1602E-01  at reduced coord.    0.8889    0.8889    0.0000
      Minimum=   -2.2051E-01  at reduced coord.    0.3889    0.1111    0.4815
   Integrated=   -2.7409E-02
 Relative magnetization (=zeta, between -1 and 1)
      Maximum=    2.5680E-01  at reduced coord.    0.7778    0.7222    0.0000
      Minimum=   -2.6286E-01  at reduced coord.    0.2778    0.2778    0.4815
  rhotov : is_hybrid_ncpp= F
  rhotov : n3xccc=        8748
 ETOT  1  -47.094197806661    -4.71E+01 3.80E-01 3.59E+03 0.027
 scprqt: <Vxc>= -4.5135076E-01 hartree

Simple mixing update:
  residual square of the potential :   2014.0844180490358
 scfcv_core: previous iteration took 01 [s]

 ITER STEP NUMBER     2
 vtorho : nnsclo_now=2, note that nnsclo,dbl_nnsclo,istep=0 0 2
 newocc: new Fermi energy is      -0.006174 , with nelect=     16.000000
  Number of bissection calls =  48
 newocc : computed new occupation numbers for occopt= 3
  (1) spin up   values
 1.000 1.000 1.000 1.000 1.000 1.000 0.995 0.828 0.095 0.001 0.000 0.000
 0.000 0.000 0.000 0.000
 1.000 1.000 1.000 1.000 1.000 1.000 0.998 0.986 0.092 0.003 0.000 0.000
 0.000 0.000 0.000 0.000
 1.000 1.000 1.000 1.000 1.000 1.000 1.000 0.991 0.258 0.004 0.000 0.000
 0.000 0.000 0.000 0.000
 1.000 1.000 1.000 1.000 1.000 0.997 0.994 0.467 0.054 0.010 0.001 0.000
 0.000 0.000 0.000 0.000
 1.000 1.000 1.000 1.000 1.000 1.000 0.994 0.983 0.685 0.006 0.001 0.000
 0.000 0.000 0.000 0.000
 1.000 1.000 1.000 1.000 1.000 1.000 0.999 0.990 0.922 0.214 0.000 0.000
 0.000 0.000 0.000 0.000
 1.000 1.000 1.000 1.000 1.000 1.000 0.069 0.055 0.014 0.007 0.002 0.000
 0.000 0.000 0.000 0.000
 1.000 1.000 1.000 1.000 1.000 1.000 0.985 0.272 0.061 0.001 0.001 0.000
 0.000 0.000 0.000 0.000
 1.000 1.000 1.000 1.000 1.000 1.000 0.999 0.989 0.055 0.001 0.000 0.000
 0.000 0.000 0.000 0.000
 1.000 1.000 1.000 1.000 1.000 1.000 0.996 0.862 0.787 0.034 0.007 0.000
 0.000 0.000 0.000 0.000
 1.000 1.000 1.000 1.000 1.000 1.000 1.000 0.997 0.009 0.007 0.000 0.000
 0.000 0.000 0.000 0.000
 1.000 1.000 1.000 1.000 1.000 1.000 1.000 0.999 0.001 0.001 0.000 0.000
 0.000 0.000 0.000 0.000
 1.000 1.000 1.000 1.000 1.000 1.000 0.995 0.945 0.655 0.207 0.012 0.001
 0.000 0.000 0.000 0.000
 1.000 1.000 1.000 1.000 1.000 1.000 1.000 0.990 0.213 0.006 0.002 0.000
 0.000 0.000 0.000 0.000
 1.000 1.000 1.000 1.000 1.000 1.000 0.999 0.998 0.039 0.003 0.000 0.000
 0.000 0.000 0.000 0.000
 1.000 1.000 1.000 1.000 0.999 0.999 0.998 0.458 0.231 0.010 0.006 0.000
 0.000 0.000 0.000 0.000
 1.000 1.000 1.000 1.000 1.000 1.000 0.999 0.581 0.031 0.004 0.002 0.000
 0.000 0.000 0.000 0.000
 1.000 1.000 1.000 1.000 0.999 0.999 0.991 0.884 0.123 0.009 0.000 0.000
 0.000 0.000 0.000 0.000
  (2) spin down values
 1.000 1.000 1.000 1.000 1.000 1.000 0.996 0.911 0.094 0.001 0.000 0.000
 0.000 0.000 0.000 0.000
 1.000 1.000 1.000 1.000 1.000 1.000 0.999 0.993 0.054 0.003 0.000 0.000
 0.000 0.000 0.000 0.000
 1.000 1.000 1.000 1.000 1.000 1.000 1.000 0.994 0.205 0.003 0.000 0.000
 0.000 0.000 0.000 0.000
 1.000 1.000 1.000 1.000 1.000 0.999 0.994 0.534 0.050 0.006 0.001 0.000
 0.000 0.000 0.000 0.000
 1.000 1.000 1.000 1.000 1.000 1.000 0.994 0.984 0.597 0.006 0.001 0.000
 0.000 0.000 0.000 0.000
 1.000 1.000 1.000 1.000 1.000 1.000 0.999 0.986 0.917 0.174 0.000 0.000
 0.000 0.000 0.000 0.000
 1.000 1.000 1.000 1.000 1.000 1.000 0.072 0.052 0.013 0.006 0.002 0.000
 0.000 0.000 0.000 0.000
 1.000 1.000 1.000 1.000 1.000 1.000 0.983 0.255 0.072 0.001 0.001 0.000
 0.000 0.000 0.000 0.000
 1.000 1.000 1.000 1.000 1.000 1.000 0.999 0.986 0.086 0.001 0.000 0.000
 0.000 0.000 0.000 0.000
 1.000 1.000 1.000 1.000 1.000 1.000 0.998 0.912 0.798 0.025 0.006 0.000
 0.000 0.000 0.000 0.000
 1.000 1.000 1.000 1.000 1.000 1.000 1.000 0.998 0.009 0.005 0.000 0.000
 0.000 0.000 0.000 0.000
 1.000 1.000 1.000 1.000 1.000 1.000 1.000 1.000 0.001 0.001 0.000 0.000
 0.000 0.000 0.000 0.000
 1.000 1.000 1.000 1.000 1.000 1.000 0.997 0.952 0.621 0.164 0.008 0.001
 0.000 0.000 0.000 0.000
 1.000 1.000 1.000 1.000 1.000 1.000 1.000 0.987 0.179 0.006 0.001 0.000
 0.000 0.000 0.000 0.000
 1.000 1.000 1.000 1.000 1.000 1.000 0.999 0.998 0.037 0.003 0.000 0.000
 0.000 0.000 0.000 0.000
 1.000 1.000 1.000 1.000 1.000 1.000 0.999 0.407 0.149 0.012 0.007 0.000
 0.000 0.000 0.000 0.000
 1.000 1.000 1.000 1.000 1.000 1.000 1.000 0.498 0.034 0.005 0.002 0.000
 0.000 0.000 0.000 0.000
 1.000 1.000 1.000 1.000 1.000 1.000 0.990 0.850 0.144 0.008 0.000 0.000
 0.000 0.000 0.000 0.000
mkrho: echo density (plane-wave part only)
 Total charge density [el/Bohr^3]
      Maximum=    4.8500E-01  at reduced coord.    0.6111    0.0000    0.5926
      Minimum=    1.5228E-03  at reduced coord.    0.0000    0.0000    0.0000
   Integrated=    1.6000E+01
 Spin up density      [el/Bohr^3]
      Maximum=    2.8996E-01  at reduced coord.    0.8889    0.8889    0.9259
      Minimum=    8.0712E-04  at reduced coord.    0.0000    0.0000    0.0000
   Integrated=    8.0095E+00
 Spin down density    [el/Bohr^3]
      Maximum=    3.0690E-01  at reduced coord.    0.6111    0.8889    0.5556
      Minimum=    7.1571E-04  at reduced coord.    0.0000    0.0000    0.0000
   Integrated=    7.9905E+00
 Magnetization (spin up - spin down) [el/Bohr^3]
      Maximum=    1.6678E-01  at reduced coord.    0.8889    0.8889    0.9630
      Minimum=   -1.6560E-01  at reduced coord.    0.3889    0.1111    0.4815
   Integrated=    1.8972E-02
 Relative magnetization (=zeta, between -1 and 1)
      Maximum=    4.2952E-01  at reduced coord.    0.8889    0.8889    0.0000
      Minimum=   -3.9749E-01  at reduced coord.    0.3889    0.1111    0.4815
 Total charge density [el/Bohr^3]
      Maximum=    4.8500E-01  at reduced coord.    0.6111    0.0000    0.5926
      Minimum=    1.5228E-03  at reduced coord.    0.0000    0.0000    0.0000
   Integrated=    1.6000E+01
 Spin up density      [el/Bohr^3]
      Maximum=    2.8996E-01  at reduced coord.    0.8889    0.8889    0.9259
      Minimum=    8.0712E-04  at reduced coord.    0.0000    0.0000    0.0000
   Integrated=    8.0095E+00
 Spin down density    [el/Bohr^3]
      Maximum=    3.0690E-01  at reduced coord.    0.6111    0.8889    0.5556
      Minimum=    7.1571E-04  at reduced coord.    0.0000    0.0000    0.0000
   Integrated=    7.9905E+00
 Magnetization (spin up - spin down) [el/Bohr^3]
      Maximum=    1.6678E-01  at reduced coord.    0.8889    0.8889    0.9630
      Minimum=   -1.6560E-01  at reduced coord.    0.3889    0.1111    0.4815
   Integrated=    1.8972E-02
 Relative magnetization (=zeta, between -1 and 1)
      Maximum=    4.2952E-01  at reduced coord.    0.8889    0.8889    0.0000
      Minimum=   -3.9749E-01  at reduced coord.    0.3889    0.1111    0.4815
  rhotov : is_hybrid_ncpp= F
  rhotov : n3xccc=        8748
 ETOT  2  -48.099858628535    -1.01E+00 1.13E-02 1.78E+03 0.019
 scprqt: <Vxc>= -5.6925579E-01 hartree

 Pulay update with  1 previous iterations:
 mixing of old trial potential : alpha(m:m-4)=  0.586      0.414
 scfcv_core: previous iteration took 01 [s]

 ITER STEP NUMBER     3
 vtorho : nnsclo_now=1, note that nnsclo,dbl_nnsclo,istep=0 0 3
 newocc: new Fermi energy is      -0.321919 , with nelect=     16.000000
  Number of bissection calls =  45
 newocc : computed new occupation numbers for occopt= 3
  (1) spin up   values
 1.000 1.000 1.000 1.000 1.000 0.998 0.996 0.799 0.028 0.006 0.003 0.000
 0.000 0.000 0.000 0.000
 1.000 1.000 1.000 1.000 1.000 0.999 0.996 0.980 0.184 0.056 0.005 0.000
 0.000 0.000 0.000 0.000
 1.000 1.000 1.000 1.000 1.000 1.000 0.998 0.997 0.277 0.033 0.003 0.000
 0.000 0.000 0.000 0.000
 1.000 1.000 1.000 1.000 1.000 0.999 0.823 0.678 0.060 0.020 0.002 0.000
 0.000 0.000 0.000 0.000
 1.000 1.000 1.000 1.000 1.000 1.000 0.925 0.714 0.275 0.094 0.041 0.000
 0.000 0.000 0.000 0.000
 1.000 1.000 1.000 1.000 1.000 0.998 0.993 0.807 0.530 0.226 0.000 0.000
 0.000 0.000 0.000 0.000
 1.000 1.000 1.000 1.000 1.000 1.000 0.693 0.123 0.075 0.004 0.001 0.000
 0.000 0.000 0.000 0.000
 1.000 1.000 1.000 1.000 1.000 0.999 0.734 0.362 0.074 0.015 0.000 0.000
 0.000 0.000 0.000 0.000
 1.000 1.000 1.000 1.000 1.000 0.996 0.975 0.807 0.401 0.001 0.000 0.000
 0.000 0.000 0.000 0.000
 1.000 1.000 1.000 1.000 1.000 0.999 0.998 0.995 0.830 0.084 0.024 0.004
 0.000 0.000 0.000 0.000
 1.000 1.000 1.000 1.000 1.000 1.000 0.999 0.997 0.164 0.042 0.006 0.000
 0.000 0.000 0.000 0.000
 1.000 1.000 1.000 1.000 1.000 0.999 0.992 0.864 0.026 0.011 0.006 0.000
 0.000 0.000 0.000 0.000
 1.000 1.000 1.000 1.000 1.000 0.999 0.997 0.854 0.552 0.145 0.033 0.002
 0.000 0.000 0.000 0.000
 1.000 1.000 1.000 1.000 1.000 0.999 0.990 0.706 0.223 0.089 0.032 0.000
 0.000 0.000 0.000 0.000
 1.000 1.000 1.000 1.000 1.000 0.833 0.592 0.530 0.049 0.010 0.002 0.000
 0.000 0.000 0.000 0.000
 1.000 1.000 1.000 1.000 1.000 0.999 0.995 0.579 0.147 0.021 0.001 0.000
 0.000 0.000 0.000 0.000
 1.000 1.000 1.000 1.000 1.000 0.974 0.952 0.339 0.091 0.005 0.000 0.000
 0.000 0.000 0.000 0.000
 1.000 1.000 1.000 1.000 0.945 0.877 0.450 0.098 0.005 0.001 0.000 0.000
 0.000 0.000 0.000 0.000
  (2) spin down values
 1.000 1.000 1.000 1.000 1.000 0.999 0.969 0.856 0.061 0.026 0.010 0.000
 0.000 0.000 0.000 0.000
 1.000 1.000 1.000 1.000 1.000 0.999 0.994 0.987 0.384 0.210 0.017 0.000
 0.000 0.000 0.000 0.000
 1.000 1.000 1.000 1.000 1.000 1.000 0.998 0.994 0.639 0.145 0.004 0.000
 0.000 0.000 0.000 0.000
 1.000 1.000 1.000 1.000 1.000 0.996 0.905 0.787 0.143 0.078 0.003 0.000
 0.000 0.000 0.000 0.000
 1.000 1.000 1.000 1.000 1.000 0.999 0.974 0.784 0.625 0.205 0.109 0.000
 0.000 0.000 0.000 0.000
 1.000 1.000 1.000 1.000 0.999 0.998 0.995 0.867 0.844 0.524 0.001 0.000
 0.000 0.000 0.000 0.000
 1.000 1.000 1.000 1.000 1.000 0.999 0.789 0.317 0.122 0.007 0.001 0.000
 0.000 0.000 0.000 0.000
 1.000 1.000 1.000 1.000 1.000 1.000 0.863 0.557 0.103 0.011 0.001 0.000
 0.000 0.000 0.000 0.000
 1.000 1.000 1.000 1.000 0.999 0.996 0.990 0.944 0.143 0.004 0.000 0.000
 0.000 0.000 0.000 0.000
 1.000 1.000 1.000 1.000 1.000 0.999 0.995 0.964 0.947 0.278 0.070 0.028
 0.000 0.000 0.000 0.000
 1.000 1.000 1.000 1.000 1.000 1.000 0.999 0.996 0.264 0.182 0.019 0.000
 0.000 0.000 0.000 0.000
 1.000 1.000 1.000 1.000 1.000 1.000 0.982 0.879 0.039 0.030 0.015 0.000
 0.000 0.000 0.000 0.000
 1.000 1.000 1.000 1.000 1.000 0.997 0.990 0.956 0.692 0.320 0.176 0.003
 0.000 0.000 0.000 0.000
 1.000 1.000 1.000 1.000 1.000 0.998 0.995 0.849 0.541 0.196 0.069 0.000
 0.000 0.000 0.000 0.000
 1.000 1.000 1.000 1.000 0.998 0.908 0.685 0.503 0.112 0.016 0.005 0.000
 0.000 0.000 0.000 0.000
 1.000 1.000 1.000 1.000 1.000 0.996 0.990 0.879 0.519 0.030 0.001 0.000
 0.000 0.000 0.000 0.000
 1.000 1.000 1.000 1.000 1.000 0.990 0.971 0.524 0.154 0.005 0.000 0.000
 0.000 0.000 0.000 0.000
 1.000 1.000 1.000 1.000 0.931 0.684 0.598 0.098 0.011 0.003 0.000 0.000
 0.000 0.000 0.000 0.000
mkrho: echo density (plane-wave part only)
 Total charge density [el/Bohr^3]
      Maximum=    7.2163E-01  at reduced coord.    0.8889    0.0000    0.8889
      Minimum=    1.6858E-03  at reduced coord.    0.0000    0.0000    0.0000
   Integrated=    1.6000E+01
 Spin up density      [el/Bohr^3]
      Maximum=    4.3593E-01  at reduced coord.    0.8889    0.8889    0.9630
      Minimum=    9.0609E-04  at reduced coord.    0.0000    0.0000    0.0000
   Integrated=    7.8309E+00
 Spin down density    [el/Bohr^3]
      Maximum=    4.1231E-01  at reduced coord.    0.6111    0.8889    0.5556
      Minimum=    7.7967E-04  at reduced coord.    0.0000    0.0000    0.0000
   Integrated=    8.1691E+00
 Magnetization (spin up - spin down) [el/Bohr^3]
      Maximum=    1.9406E-01  at reduced coord.    0.8889    0.8889    0.0000
      Minimum=   -2.4340E-01  at reduced coord.    0.3889    0.1111    0.4815
   Integrated=   -3.3825E-01
 Relative magnetization (=zeta, between -1 and 1)
      Maximum=    2.9841E-01  at reduced coord.    0.8889    0.8889    0.0000
      Minimum=   -4.3728E-01  at reduced coord.    0.3889    0.1111    0.4815
 Total charge density [el/Bohr^3]
      Maximum=    7.2163E-01  at reduced coord.    0.8889    0.0000    0.8889
      Minimum=    1.6858E-03  at reduced coord.    0.0000    0.0000    0.0000
   Integrated=    1.6000E+01
 Spin up density      [el/Bohr^3]
      Maximum=    4.3593E-01  at reduced coord.    0.8889    0.8889    0.9630
      Minimum=    9.0609E-04  at reduced coord.    0.0000    0.0000    0.0000
   Integrated=    7.8309E+00
 Spin down density    [el/Bohr^3]
      Maximum=    4.1231E-01  at reduced coord.    0.6111    0.8889    0.5556
      Minimum=    7.7967E-04  at reduced coord.    0.0000    0.0000    0.0000
   Integrated=    8.1691E+00
 Magnetization (spin up - spin down) [el/Bohr^3]
      Maximum=    1.9406E-01  at reduced coord.    0.8889    0.8889    0.0000
      Minimum=   -2.4340E-01  at reduced coord.    0.3889    0.1111    0.4815
   Integrated=   -3.3825E-01
 Relative magnetization (=zeta, between -1 and 1)
      Maximum=    2.9841E-01  at reduced coord.    0.8889    0.8889    0.0000
      Minimum=   -4.3728E-01  at reduced coord.    0.3889    0.1111    0.4815
  rhotov : is_hybrid_ncpp= F
  rhotov : n3xccc=        8748
 ETOT  3  -49.155028631509    -1.06E+00 2.89E-02 2.18E+02 0.338
 scprqt: <Vxc>= -5.3095041E-01 hartree

 Pulay update with  2 previous iterations:
 mixing of old trial potential : alpha(m:m-4)=  0.121      0.520      0.358
 scfcv_core: previous iteration took 00 [s]

 ITER STEP NUMBER     4
 vtorho : nnsclo_now=1, note that nnsclo,dbl_nnsclo,istep=0 0 4
 newocc: new Fermi energy is      -0.281703 , with nelect=     16.000000
  Number of bissection calls =  46
 newocc : computed new occupation numbers for occopt= 3
  (1) spin up   values
 1.000 1.000 1.000 1.000 1.000 0.999 0.984 0.826 0.038 0.017 0.006 0.000
 0.000 0.000 0.000 0.000
 1.000 1.000 1.000 1.000 1.000 0.999 0.996 0.985 0.249 0.136 0.010 0.000
 0.000 0.000 0.000 0.000
 1.000 1.000 1.000 1.000 1.000 0.999 0.999 0.996 0.470 0.081 0.003 0.000
 0.000 0.000 0.000 0.000
 1.000 1.000 1.000 1.000 1.000 0.998 0.883 0.736 0.091 0.048 0.002 0.000
 0.000 0.000 0.000 0.000
 1.000 1.000 1.000 1.000 1.000 0.999 0.960 0.759 0.471 0.147 0.074 0.000
 0.000 0.000 0.000 0.000
 1.000 1.000 1.000 1.000 1.000 0.998 0.994 0.829 0.763 0.397 0.000 0.000
 0.000 0.000 0.000 0.000
 1.000 1.000 1.000 1.000 1.000 0.999 0.742 0.210 0.101 0.005 0.001 0.000
 0.000 0.000 0.000 0.000
 1.000 1.000 1.000 1.000 1.000 1.000 0.815 0.475 0.081 0.013 0.001 0.000
 0.000 0.000 0.000 0.000
 1.000 1.000 1.000 1.000 1.000 0.996 0.986 0.908 0.210 0.002 0.000 0.000
 0.000 0.000 0.000 0.000
 1.000 1.000 1.000 1.000 1.000 0.999 0.997 0.979 0.918 0.172 0.046 0.012
 0.000 0.000 0.000 0.000
 1.000 1.000 1.000 1.000 1.000 0.999 0.999 0.998 0.212 0.100 0.011 0.000
 0.000 0.000 0.000 0.000
 1.000 1.000 1.000 1.000 1.000 0.999 0.987 0.886 0.027 0.019 0.011 0.000
 0.000 0.000 0.000 0.000
 1.000 1.000 1.000 1.000 1.000 0.998 0.995 0.928 0.644 0.230 0.091 0.003
 0.000 0.000 0.000 0.000
 1.000 1.000 1.000 1.000 1.000 0.998 0.995 0.811 0.387 0.143 0.050 0.000
 0.000 0.000 0.000 0.000
 1.000 1.000 1.000 1.000 0.999 0.830 0.735 0.509 0.076 0.013 0.003 0.000
 0.000 0.000 0.000 0.000
 1.000 1.000 1.000 1.000 1.000 0.998 0.992 0.777 0.326 0.025 0.001 0.000
 0.000 0.000 0.000 0.000
 1.000 1.000 1.000 1.000 1.000 0.980 0.971 0.442 0.120 0.005 0.000 0.000
 0.000 0.000 0.000 0.000
 1.000 1.000 1.000 1.000 0.929 0.738 0.566 0.091 0.007 0.002 0.000 0.000
 0.000 0.000 0.000 0.000
  (2) spin down values
 1.000 1.000 1.000 1.000 1.000 0.999 0.990 0.826 0.037 0.014 0.005 0.000
 0.000 0.000 0.000 0.000
 1.000 1.000 1.000 1.000 1.000 0.999 0.997 0.985 0.232 0.113 0.009 0.000
 0.000 0.000 0.000 0.000
 1.000 1.000 1.000 1.000 1.000 0.999 0.999 0.997 0.420 0.066 0.004 0.000
 0.000 0.000 0.000 0.000
 1.000 1.000 1.000 1.000 1.000 0.999 0.874 0.732 0.085 0.040 0.002 0.000
 0.000 0.000 0.000 0.000
 1.000 1.000 1.000 1.000 1.000 0.999 0.954 0.759 0.419 0.137 0.067 0.000
 0.000 0.000 0.000 0.000
 1.000 1.000 1.000 1.000 1.000 0.998 0.994 0.831 0.714 0.355 0.000 0.000
 0.000 0.000 0.000 0.000
 1.000 1.000 1.000 1.000 1.000 1.000 0.738 0.188 0.100 0.005 0.001 0.000
 0.000 0.000 0.000 0.000
 1.000 1.000 1.000 1.000 1.000 1.000 0.804 0.460 0.082 0.015 0.001 0.000
 0.000 0.000 0.000 0.000
 1.000 1.000 1.000 1.000 1.000 0.996 0.984 0.892 0.276 0.001 0.000 0.000
 0.000 0.000 0.000 0.000
 1.000 1.000 1.000 1.000 1.000 0.999 0.998 0.987 0.903 0.148 0.041 0.009
 0.000 0.000 0.000 0.000
 1.000 1.000 1.000 1.000 1.000 0.999 0.999 0.998 0.206 0.082 0.010 0.000
 0.000 0.000 0.000 0.000
 1.000 1.000 1.000 1.000 1.000 0.999 0.989 0.888 0.027 0.018 0.010 0.000
 0.000 0.000 0.000 0.000
 1.000 1.000 1.000 1.000 1.000 0.998 0.997 0.915 0.635 0.213 0.071 0.002
 0.000 0.000 0.000 0.000
 1.000 1.000 1.000 1.000 1.000 0.998 0.994 0.793 0.345 0.132 0.047 0.000
 0.000 0.000 0.000 0.000
 1.000 1.000 1.000 1.000 0.999 0.791 0.760 0.538 0.071 0.013 0.003 0.000
 0.000 0.000 0.000 0.000
 1.000 1.000 1.000 1.000 1.000 0.998 0.994 0.735 0.273 0.025 0.001 0.000
 0.000 0.000 0.000 0.000
 1.000 1.000 1.000 1.000 1.000 0.976 0.973 0.430 0.117 0.005 0.000 0.000
 0.000 0.000 0.000 0.000
 1.000 1.000 1.000 1.000 0.936 0.801 0.552 0.098 0.007 0.001 0.000 0.000
 0.000 0.000 0.000 0.000
mkrho: echo density (plane-wave part only)
 Total charge density [el/Bohr^3]
      Maximum=    6.9651E-01  at reduced coord.    0.6111    0.0000    0.5926
      Minimum=    1.6349E-03  at reduced coord.    0.0000    0.0000    0.0000
   Integrated=    1.6000E+01
 Spin up density      [el/Bohr^3]
      Maximum=    4.1774E-01  at reduced coord.    0.8889    0.8889    0.9630
      Minimum=    8.7600E-04  at reduced coord.    0.0000    0.0000    0.0000
   Integrated=    8.0145E+00
 Spin down density    [el/Bohr^3]
      Maximum=    4.2946E-01  at reduced coord.    0.6111    0.8889    0.5556
      Minimum=    7.5895E-04  at reduced coord.    0.0000    0.0000    0.0000
   Integrated=    7.9855E+00
 Magnetization (spin up - spin down) [el/Bohr^3]
      Maximum=    2.2575E-01  at reduced coord.    0.8889    0.8889    0.0000
      Minimum=   -2.2146E-01  at reduced coord.    0.3889    0.1111    0.4815
   Integrated=    2.9041E-02
 Relative magnetization (=zeta, between -1 and 1)
      Maximum=    3.8589E-01  at reduced coord.    0.8889    0.8889    0.0000
      Minimum=   -3.6344E-01  at reduced coord.    0.3889    0.1111    0.4815
 Total charge density [el/Bohr^3]
      Maximum=    6.9651E-01  at reduced coord.    0.6111    0.0000    0.5926
      Minimum=    1.6349E-03  at reduced coord.    0.0000    0.0000    0.0000
   Integrated=    1.6000E+01
 Spin up density      [el/Bohr^3]
      Maximum=    4.1774E-01  at reduced coord.    0.8889    0.8889    0.9630
      Minimum=    8.7600E-04  at reduced coord.    0.0000    0.0000    0.0000
   Integrated=    8.0145E+00
 Spin down density    [el/Bohr^3]
      Maximum=    4.2946E-01  at reduced coord.    0.6111    0.8889    0.5556
      Minimum=    7.5895E-04  at reduced coord.    0.0000    0.0000    0.0000
   Integrated=    7.9855E+00
 Magnetization (spin up - spin down) [el/Bohr^3]
      Maximum=    2.2575E-01  at reduced coord.    0.8889    0.8889    0.0000
      Minimum=   -2.2146E-01  at reduced coord.    0.3889    0.1111    0.4815
   Integrated=    2.9041E-02
 Relative magnetization (=zeta, between -1 and 1)
      Maximum=    3.8589E-01  at reduced coord.    0.8889    0.8889    0.0000
      Minimum=   -3.6344E-01  at reduced coord.    0.3889    0.1111    0.4815
  rhotov : is_hybrid_ncpp= F
  rhotov : n3xccc=        8748
 ETOT  4  -49.234199981342    -7.92E-02 8.69E-03 2.47E+01 0.029
 scprqt: <Vxc>= -5.3181703E-01 hartree

 Pulay update with  3 previous iterations:
 mixing of old trial potential : alpha(m:m-4)=  0.554      0.137      0.206      0.103
 scfcv_core: previous iteration took 00 [s]

 ITER STEP NUMBER     5
 vtorho : nnsclo_now=1, note that nnsclo,dbl_nnsclo,istep=0 0 5
 newocc: new Fermi energy is      -0.272582 , with nelect=     16.000000
  Number of bissection calls =  49
 newocc : computed new occupation numbers for occopt= 3
  (1) spin up   values
 1.000 1.000 1.000 1.000 1.000 0.999 0.982 0.796 0.045 0.014 0.005 0.000
 0.000 0.000 0.000 0.000
 1.000 1.000 1.000 1.000 1.000 0.999 0.996 0.987 0.209 0.112 0.009 0.000
 0.000 0.000 0.000 0.000
 1.000 1.000 1.000 1.000 1.000 0.999 0.999 0.997 0.430 0.073 0.003 0.000
 0.000 0.000 0.000 0.000
 1.000 1.000 1.000 1.000 1.000 0.998 0.892 0.695 0.089 0.039 0.002 0.000
 0.000 0.000 0.000 0.000
 1.000 1.000 1.000 1.000 1.000 0.999 0.958 0.773 0.461 0.129 0.063 0.000
 0.000 0.000 0.000 0.000
 1.000 1.000 1.000 1.000 1.000 0.998 0.994 0.809 0.795 0.402 0.000 0.000
 0.000 0.000 0.000 0.000
 1.000 1.000 1.000 1.000 1.000 0.999 0.697 0.187 0.104 0.005 0.001 0.000
 0.000 0.000 0.000 0.000
 1.000 1.000 1.000 1.000 1.000 1.000 0.797 0.477 0.062 0.013 0.001 0.000
 0.000 0.000 0.000 0.000
 1.000 1.000 1.000 1.000 1.000 0.996 0.985 0.915 0.159 0.001 0.000 0.000
 0.000 0.000 0.000 0.000
 1.000 1.000 1.000 1.000 1.000 0.999 0.997 0.977 0.912 0.160 0.042 0.009
 0.000 0.000 0.000 0.000
 1.000 1.000 1.000 1.000 1.000 0.999 0.999 0.998 0.183 0.086 0.009 0.000
 0.000 0.000 0.000 0.000
 1.000 1.000 1.000 1.000 1.000 1.000 0.991 0.933 0.023 0.016 0.010 0.000
 0.000 0.000 0.000 0.000
 1.000 1.000 1.000 1.000 1.000 0.998 0.994 0.928 0.684 0.221 0.074 0.003
 0.000 0.000 0.000 0.000
 1.000 1.000 1.000 1.000 1.000 0.998 0.995 0.860 0.358 0.125 0.045 0.000
 0.000 0.000 0.000 0.000
 1.000 1.000 1.000 1.000 0.999 0.867 0.739 0.538 0.069 0.014 0.004 0.000
 0.000 0.000 0.000 0.000
 1.000 1.000 1.000 1.000 1.000 0.998 0.992 0.752 0.288 0.020 0.002 0.000
 0.000 0.000 0.000 0.000
 1.000 1.000 1.000 1.000 1.000 0.981 0.974 0.422 0.100 0.004 0.000 0.000
 0.000 0.000 0.000 0.000
 1.000 1.000 1.000 1.000 0.933 0.683 0.551 0.085 0.006 0.001 0.000 0.000
 0.000 0.000 0.000 0.000
  (2) spin down values
 1.000 1.000 1.000 1.000 1.000 0.999 0.983 0.805 0.046 0.015 0.005 0.000
 0.000 0.000 0.000 0.000
 1.000 1.000 1.000 1.000 1.000 0.999 0.996 0.987 0.219 0.118 0.009 0.000
 0.000 0.000 0.000 0.000
 1.000 1.000 1.000 1.000 1.000 0.999 0.999 0.997 0.444 0.077 0.003 0.000
 0.000 0.000 0.000 0.000
 1.000 1.000 1.000 1.000 1.000 0.998 0.896 0.707 0.094 0.041 0.002 0.000
 0.000 0.000 0.000 0.000
 1.000 1.000 1.000 1.000 1.000 0.999 0.960 0.781 0.474 0.136 0.066 0.000
 0.000 0.000 0.000 0.000
 1.000 1.000 1.000 1.000 1.000 0.998 0.994 0.818 0.803 0.415 0.000 0.000
 0.000 0.000 0.000 0.000
 1.000 1.000 1.000 1.000 1.000 0.999 0.708 0.196 0.109 0.005 0.001 0.000
 0.000 0.000 0.000 0.000
 1.000 1.000 1.000 1.000 1.000 1.000 0.804 0.493 0.066 0.013 0.001 0.000
 0.000 0.000 0.000 0.000
 1.000 1.000 1.000 1.000 1.000 0.996 0.985 0.920 0.168 0.001 0.000 0.000
 0.000 0.000 0.000 0.000
 1.000 1.000 1.000 1.000 1.000 0.999 0.997 0.979 0.915 0.168 0.044 0.010
 0.000 0.000 0.000 0.000
 1.000 1.000 1.000 1.000 1.000 0.999 0.999 0.998 0.191 0.091 0.010 0.000
 0.000 0.000 0.000 0.000
 1.000 1.000 1.000 1.000 1.000 1.000 0.991 0.935 0.024 0.017 0.010 0.000
 0.000 0.000 0.000 0.000
 1.000 1.000 1.000 1.000 1.000 0.998 0.995 0.931 0.694 0.231 0.078 0.003
 0.000 0.000 0.000 0.000
 1.000 1.000 1.000 1.000 1.000 0.998 0.996 0.865 0.371 0.132 0.048 0.000
 0.000 0.000 0.000 0.000
 1.000 1.000 1.000 1.000 0.999 0.871 0.748 0.553 0.073 0.015 0.004 0.000
 0.000 0.000 0.000 0.000
 1.000 1.000 1.000 1.000 1.000 0.998 0.992 0.759 0.300 0.021 0.002 0.000
 0.000 0.000 0.000 0.000
 1.000 1.000 1.000 1.000 1.000 0.982 0.975 0.438 0.105 0.004 0.000 0.000
 0.000 0.000 0.000 0.000
 1.000 1.000 1.000 1.000 0.937 0.696 0.567 0.089 0.006 0.002 0.000 0.000
 0.000 0.000 0.000 0.000
mkrho: echo density (plane-wave part only)
 Total charge density [el/Bohr^3]
      Maximum=    6.8146E-01  at reduced coord.    0.6111    0.0000    0.5926
      Minimum=    1.6422E-03  at reduced coord.    0.0000    0.0000    0.0000
   Integrated=    1.6000E+01
 Spin up density      [el/Bohr^3]
      Maximum=    4.1386E-01  at reduced coord.    0.8889    0.8889    0.9630
      Minimum=    8.7192E-04  at reduced coord.    0.0000    0.0000    0.0000
   Integrated=    7.9887E+00
 Spin down density    [el/Bohr^3]
      Maximum=    4.2051E-01  at reduced coord.    0.6111    0.8889    0.5556
      Minimum=    7.7024E-04  at reduced coord.    0.0000    0.0000    0.0000
   Integrated=    8.0113E+00
 Magnetization (spin up - spin down) [el/Bohr^3]
      Maximum=    2.1880E-01  at reduced coord.    0.8889    0.8889    0.0000
      Minimum=   -2.2203E-01  at reduced coord.    0.3889    0.1111    0.4815
   Integrated=   -2.2503E-02
 Relative magnetization (=zeta, between -1 and 1)
      Maximum=    3.7529E-01  at reduced coord.    0.8889    0.8889    0.0000
      Minimum=   -3.7627E-01  at reduced coord.    0.3889    0.1111    0.4815
 Total charge density [el/Bohr^3]
      Maximum=    6.8146E-01  at reduced coord.    0.6111    0.0000    0.5926
      Minimum=    1.6422E-03  at reduced coord.    0.0000    0.0000    0.0000
   Integrated=    1.6000E+01
 Spin up density      [el/Bohr^3]
      Maximum=    4.1386E-01  at reduced coord.    0.8889    0.8889    0.9630
      Minimum=    8.7192E-04  at reduced coord.    0.0000    0.0000    0.0000
   Integrated=    7.9887E+00
 Spin down density    [el/Bohr^3]
      Maximum=    4.2051E-01  at reduced coord.    0.6111    0.8889    0.5556
      Minimum=    7.7024E-04  at reduced coord.    0.0000    0.0000    0.0000
   Integrated=    8.0113E+00
 Magnetization (spin up - spin down) [el/Bohr^3]
      Maximum=    2.1880E-01  at reduced coord.    0.8889    0.8889    0.0000
      Minimum=   -2.2203E-01  at reduced coord.    0.3889    0.1111    0.4815
   Integrated=   -2.2503E-02
 Relative magnetization (=zeta, between -1 and 1)
      Maximum=    3.7529E-01  at reduced coord.    0.8889    0.8889    0.0000
      Minimum=   -3.7627E-01  at reduced coord.    0.3889    0.1111    0.4815
  rhotov : is_hybrid_ncpp= F
  rhotov : n3xccc=        8748
 ETOT  5  -49.244228156025    -1.00E-02 1.40E-03 3.06E+00 0.023
 scprqt: <Vxc>= -5.3417067E-01 hartree

 Pulay update with  4 previous iterations:
 mixing of old trial potential : alpha(m:m-4)=   1.70     -0.413     -0.981E-01 -0.109     -0.824E-01
 scfcv_core: previous iteration took 00 [s]

 ITER STEP NUMBER     6
 vtorho : nnsclo_now=1, note that nnsclo,dbl_nnsclo,istep=0 0 6
 newocc: new Fermi energy is      -0.266651 , with nelect=     16.000000
  Number of bissection calls =  49
 newocc : computed new occupation numbers for occopt= 3
  (1) spin up   values
 1.000 1.000 1.000 1.000 1.000 0.999 0.971 0.786 0.053 0.017 0.005 0.000
 0.000 0.000 0.000 0.000
 1.000 1.000 1.000 1.000 1.000 0.999 0.994 0.988 0.219 0.118 0.008 0.000
 0.000 0.000 0.000 0.000
 1.000 1.000 1.000 1.000 1.000 1.000 0.999 0.995 0.461 0.072 0.003 0.000
 0.000 0.000 0.000 0.000
 1.000 1.000 1.000 1.000 1.000 0.997 0.896 0.682 0.085 0.040 0.002 0.000
 0.000 0.000 0.000 0.000
 1.000 1.000 1.000 1.000 1.000 0.999 0.961 0.778 0.509 0.124 0.062 0.000
 0.000 0.000 0.000 0.000
 1.000 1.000 1.000 1.000 1.000 0.998 0.994 0.853 0.788 0.430 0.000 0.000
 0.000 0.000 0.000 0.000
 1.000 1.000 1.000 1.000 1.000 0.999 0.683 0.190 0.101 0.004 0.001 0.000
 0.000 0.000 0.000 0.000
 1.000 1.000 1.000 1.000 1.000 1.000 0.799 0.460 0.056 0.011 0.001 0.000
 0.000 0.000 0.000 0.000
 1.000 1.000 1.000 1.000 1.000 0.995 0.986 0.925 0.087 0.002 0.000 0.000
 0.000 0.000 0.000 0.000
 1.000 1.000 1.000 1.000 1.000 0.999 0.996 0.964 0.917 0.158 0.043 0.010
 0.000 0.000 0.000 0.000
 1.000 1.000 1.000 1.000 1.000 0.999 0.999 0.997 0.169 0.088 0.009 0.000
 0.000 0.000 0.000 0.000
 1.000 1.000 1.000 1.000 1.000 1.000 0.991 0.959 0.020 0.016 0.009 0.000
 0.000 0.000 0.000 0.000
 1.000 1.000 1.000 1.000 1.000 0.997 0.992 0.933 0.717 0.212 0.085 0.003
 0.000 0.000 0.000 0.000
 1.000 1.000 1.000 1.000 1.000 0.998 0.996 0.897 0.374 0.122 0.041 0.000
 0.000 0.000 0.000 0.000
 1.000 1.000 1.000 1.000 0.998 0.924 0.720 0.522 0.064 0.017 0.004 0.000
 0.000 0.000 0.000 0.000
 1.000 1.000 1.000 1.000 1.000 0.997 0.989 0.762 0.331 0.016 0.002 0.000
 0.000 0.000 0.000 0.000
 1.000 1.000 1.000 1.000 1.000 0.988 0.974 0.418 0.087 0.003 0.000 0.000
 0.000 0.000 0.000 0.000
 1.000 1.000 1.000 1.000 0.929 0.602 0.505 0.073 0.006 0.002 0.000 0.000
 0.000 0.000 0.000 0.000
  (2) spin down values
 1.000 1.000 1.000 1.000 1.000 0.999 0.972 0.794 0.055 0.018 0.005 0.000
 0.000 0.000 0.000 0.000
 1.000 1.000 1.000 1.000 1.000 0.999 0.994 0.988 0.229 0.124 0.008 0.000
 0.000 0.000 0.000 0.000
 1.000 1.000 1.000 1.000 1.000 1.000 0.999 0.995 0.475 0.077 0.003 0.000
 0.000 0.000 0.000 0.000
 1.000 1.000 1.000 1.000 1.000 0.997 0.899 0.693 0.089 0.042 0.002 0.000
 0.000 0.000 0.000 0.000
 1.000 1.000 1.000 1.000 1.000 0.999 0.963 0.783 0.523 0.131 0.066 0.000
 0.000 0.000 0.000 0.000
 1.000 1.000 1.000 1.000 1.000 0.998 0.994 0.859 0.795 0.444 0.000 0.000
 0.000 0.000 0.000 0.000
 1.000 1.000 1.000 1.000 1.000 0.999 0.694 0.199 0.105 0.004 0.001 0.000
 0.000 0.000 0.000 0.000
 1.000 1.000 1.000 1.000 1.000 1.000 0.806 0.473 0.059 0.011 0.001 0.000
 0.000 0.000 0.000 0.000
 1.000 1.000 1.000 1.000 1.000 0.995 0.987 0.929 0.089 0.002 0.000 0.000
 0.000 0.000 0.000 0.000
 1.000 1.000 1.000 1.000 1.000 0.999 0.996 0.965 0.921 0.167 0.045 0.011
 0.000 0.000 0.000 0.000
 1.000 1.000 1.000 1.000 1.000 1.000 0.999 0.997 0.176 0.093 0.009 0.000
 0.000 0.000 0.000 0.000
 1.000 1.000 1.000 1.000 1.000 1.000 0.992 0.960 0.021 0.016 0.009 0.000
 0.000 0.000 0.000 0.000
 1.000 1.000 1.000 1.000 1.000 0.997 0.992 0.936 0.725 0.221 0.090 0.003
 0.000 0.000 0.000 0.000
 1.000 1.000 1.000 1.000 1.000 0.998 0.997 0.900 0.388 0.128 0.043 0.000
 0.000 0.000 0.000 0.000
 1.000 1.000 1.000 1.000 0.999 0.927 0.725 0.528 0.068 0.017 0.005 0.000
 0.000 0.000 0.000 0.000
 1.000 1.000 1.000 1.000 1.000 0.997 0.989 0.774 0.345 0.017 0.002 0.000
 0.000 0.000 0.000 0.000
 1.000 1.000 1.000 1.000 1.000 0.989 0.975 0.430 0.091 0.003 0.000 0.000
 0.000 0.000 0.000 0.000
 1.000 1.000 1.000 1.000 0.932 0.610 0.513 0.076 0.006 0.002 0.000 0.000
 0.000 0.000 0.000 0.000
mkrho: echo density (plane-wave part only)
 Total charge density [el/Bohr^3]
      Maximum=    6.7397E-01  at reduced coord.    0.6111    0.0000    0.5926
      Minimum=    1.6356E-03  at reduced coord.    0.0000    0.0000    0.0000
   Integrated=    1.6000E+01
 Spin up density      [el/Bohr^3]
      Maximum=    4.0445E-01  at reduced coord.    0.8889    0.8889    0.9630
      Minimum=    8.5793E-04  at reduced coord.    0.0000    0.0000    0.0000
   Integrated=    7.9904E+00
 Spin down density    [el/Bohr^3]
      Maximum=    4.0961E-01  at reduced coord.    0.6111    0.8889    0.5556
      Minimum=    7.7772E-04  at reduced coord.    0.0000    0.0000    0.0000
   Integrated=    8.0096E+00
 Magnetization (spin up - spin down) [el/Bohr^3]
      Maximum=    2.0456E-01  at reduced coord.    0.8889    0.8889    0.0000
      Minimum=   -2.0721E-01  at reduced coord.    0.3889    0.1111    0.4815
   Integrated=   -1.9185E-02
 Relative magnetization (=zeta, between -1 and 1)
      Maximum=    3.5311E-01  at reduced coord.    0.8889    0.8889    0.0000
      Minimum=   -3.5443E-01  at reduced coord.    0.3889    0.1111    0.4815
 Total charge density [el/Bohr^3]
      Maximum=    6.7397E-01  at reduced coord.    0.6111    0.0000    0.5926
      Minimum=    1.6356E-03  at reduced coord.    0.0000    0.0000    0.0000
   Integrated=    1.6000E+01
 Spin up density      [el/Bohr^3]
      Maximum=    4.0445E-01  at reduced coord.    0.8889    0.8889    0.9630
      Minimum=    8.5793E-04  at reduced coord.    0.0000    0.0000    0.0000
   Integrated=    7.9904E+00
 Spin down density    [el/Bohr^3]
      Maximum=    4.0961E-01  at reduced coord.    0.6111    0.8889    0.5556
      Minimum=    7.7772E-04  at reduced coord.    0.0000    0.0000    0.0000
   Integrated=    8.0096E+00
 Magnetization (spin up - spin down) [el/Bohr^3]
      Maximum=    2.0456E-01  at reduced coord.    0.8889    0.8889    0.0000
      Minimum=   -2.0721E-01  at reduced coord.    0.3889    0.1111    0.4815
   Integrated=   -1.9185E-02
 Relative magnetization (=zeta, between -1 and 1)
      Maximum=    3.5311E-01  at reduced coord.    0.8889    0.8889    0.0000
      Minimum=   -3.5443E-01  at reduced coord.    0.3889    0.1111    0.4815
  rhotov : is_hybrid_ncpp= F
  rhotov : n3xccc=        8748
 ETOT  6  -49.246351863045    -2.12E-03 8.75E-04 9.03E-01 0.019
 scprqt: <Vxc>= -5.3628829E-01 hartree

 Pulay update with  5 previous iterations:
 mixing of old trial potential : alpha(m:m-4)=  0.652      0.441      0.331E-01 -0.213E-01 -0.600E-01
 scfcv_core: previous iteration took 00 [s]

 ITER STEP NUMBER     7
 vtorho : nnsclo_now=1, note that nnsclo,dbl_nnsclo,istep=0 0 7
 newocc: new Fermi energy is      -0.270712 , with nelect=     16.000000
  Number of bissection calls =  45
 newocc : computed new occupation numbers for occopt= 3
  (1) spin up   values
 1.000 1.000 1.000 1.000 1.000 0.999 0.964 0.779 0.050 0.018 0.005 0.000
 0.000 0.000 0.000 0.000
 1.000 1.000 1.000 1.000 1.000 0.999 0.993 0.987 0.227 0.120 0.009 0.000
 0.000 0.000 0.000 0.000
 1.000 1.000 1.000 1.000 1.000 1.000 0.998 0.995 0.478 0.080 0.003 0.000
 0.000 0.000 0.000 0.000
 1.000 1.000 1.000 1.000 1.000 0.996 0.897 0.676 0.090 0.043 0.002 0.000
 0.000 0.000 0.000 0.000
 1.000 1.000 1.000 1.000 1.000 0.999 0.962 0.773 0.522 0.128 0.063 0.000
 0.000 0.000 0.000 0.000
 1.000 1.000 1.000 1.000 0.999 0.998 0.993 0.859 0.786 0.444 0.000 0.000
 0.000 0.000 0.000 0.000
 1.000 1.000 1.000 1.000 1.000 0.999 0.676 0.198 0.104 0.004 0.001 0.000
 0.000 0.000 0.000 0.000
 1.000 1.000 1.000 1.000 1.000 1.000 0.796 0.475 0.054 0.010 0.001 0.000
 0.000 0.000 0.000 0.000
 1.000 1.000 1.000 1.000 1.000 0.995 0.986 0.931 0.078 0.002 0.000 0.000
 0.000 0.000 0.000 0.000
[...]
                       1.000000  1.000000  0.999998  0.999978  0.999704  0.998809
                       0.979747  0.937085  0.511988  0.125759  0.011995  0.000000
                       0.000000  0.000000  0.000000  0.000000
                       1.000000  0.999999  0.999996  0.999938  0.999865  0.999738
                       0.992081  0.977072  0.695914  0.140808  0.001765  0.000000
                       0.000000  0.000000  0.000000  0.000000
                       1.000000  1.000000  0.999998  0.999997  0.999981  0.979341
                       0.863615  0.657941  0.143468  0.050573  0.001639  0.000000
                       0.000000  0.000000  0.000000  0.000000
                       1.000000  1.000000  0.999996  0.999992  0.999926  0.993478
                       0.960949  0.699319  0.667562  0.142110  0.070382  0.000000
                       0.000000  0.000000  0.000000  0.000000
                       1.000000  0.999999  0.999992  0.999973  0.997903  0.995340
                       0.988307  0.912239  0.753121  0.496623  0.000377  0.000000
                       0.000000  0.000000  0.000000  0.000000
                       1.000000  1.000000  1.000000  0.999997  0.999977  0.996600
                       0.649934  0.288546  0.091344  0.003012  0.000379  0.000000
                       0.000000  0.000000  0.000000  0.000000
                       1.000000  0.999999  0.999998  0.999997  0.999938  0.999537
                       0.781634  0.466763  0.049603  0.004532  0.001509  0.000000
                       0.000000  0.000000  0.000000  0.000000
                       1.000000  1.000000  0.999994  0.999962  0.998974  0.992306
                       0.985242  0.954840  0.018694  0.005048  0.000002  0.000000
                       0.000000  0.000000  0.000000  0.000000
                       1.000000  1.000000  0.999996  0.999979  0.999591  0.996859
                       0.979417  0.952399  0.666029  0.306957  0.057473  0.030730
                       0.000000  0.000000  0.000000  0.000000
                       1.000000  1.000000  0.999998  0.999997  0.999896  0.999768
                       0.996288  0.982488  0.179958  0.151450  0.013459  0.000047
                       0.000000  0.000000  0.000000  0.000000
                       1.000000  1.000000  0.999993  0.999932  0.999863  0.999700
                       0.971146  0.910976  0.027173  0.018932  0.007007  0.000029
                       0.000000  0.000000  0.000000  0.000000
                       1.000000  1.000000  0.999993  0.999987  0.999517  0.992459
                       0.947260  0.905029  0.618469  0.409891  0.162697  0.002994
                       0.000000  0.000000  0.000000  0.000000
                       1.000000  1.000000  0.999997  0.999994  0.999427  0.998401
                       0.971685  0.904895  0.535365  0.126496  0.043305  0.000002
                       0.000000  0.000000  0.000000  0.000000
                       1.000000  1.000000  1.000000  0.999999  0.988434  0.967519
                       0.487154  0.296275  0.085657  0.012883  0.005281  0.000000
                       0.000000  0.000000  0.000000  0.000000
                       1.000000  1.000000  0.999998  0.999996  0.999414  0.974936
                       0.953671  0.890572  0.633310  0.012408  0.001535  0.000001
                       0.000000  0.000000  0.000000  0.000000
                       1.000000  1.000000  0.999999  0.999982  0.998367  0.993737
                       0.947947  0.425164  0.080594  0.001618  0.000423  0.000000
                       0.000000  0.000000  0.000000  0.000000
                       1.000000  1.000000  1.000000  0.999999  0.883950  0.582819
                       0.226572  0.055875  0.006193  0.001980  0.000005  0.000000
                       0.000000  0.000000  0.000000  0.000000
                       1.000000  1.000000  1.000000  0.999987  0.999724  0.998641
                       0.755208  0.741587  0.077170  0.023305  0.007828  0.000001
                       0.000000  0.000000  0.000000  0.000000
                       1.000000  1.000000  0.999998  0.999978  0.999703  0.998805
                       0.979672  0.936732  0.510654  0.125256  0.011929  0.000000
                       0.000000  0.000000  0.000000  0.000000
                       1.000000  0.999999  0.999996  0.999937  0.999865  0.999737
                       0.992041  0.976951  0.694796  0.140154  0.001757  0.000000
                       0.000000  0.000000  0.000000  0.000000
                       1.000000  1.000000  0.999998  0.999997  0.999981  0.979225
                       0.863173  0.656919  0.142777  0.050308  0.001633  0.000000
                       0.000000  0.000000  0.000000  0.000000
                       1.000000  1.000000  0.999996  0.999991  0.999926  0.993444
                       0.960815  0.698358  0.666667  0.141479  0.070063  0.000000
                       0.000000  0.000000  0.000000  0.000000
                       1.000000  0.999999  0.999992  0.999973  0.997896  0.995320
                       0.988261  0.911897  0.752313  0.495363  0.000376  0.000000
                       0.000000  0.000000  0.000000  0.000000
                       1.000000  1.000000  1.000000  0.999997  0.999977  0.996581
                       0.648911  0.287372  0.090928  0.003000  0.000377  0.000000
                       0.000000  0.000000  0.000000  0.000000
                       1.000000  0.999999  0.999998  0.999997  0.999938  0.999534
                       0.781077  0.465450  0.049387  0.004513  0.001503  0.000000
                       0.000000  0.000000  0.000000  0.000000
                       1.000000  1.000000  0.999994  0.999962  0.998969  0.992283
                       0.985193  0.954634  0.018607  0.005029  0.000002  0.000000
                       0.000000  0.000000  0.000000  0.000000
                       1.000000  1.000000  0.999996  0.999979  0.999590  0.996848
                       0.979323  0.952226  0.664723  0.305799  0.057178  0.030615
                       0.000000  0.000000  0.000000  0.000000
                       1.000000  1.000000  0.999998  0.999997  0.999896  0.999767
                       0.996269  0.982396  0.179128  0.150918  0.013382  0.000047
                       0.000000  0.000000  0.000000  0.000000
                       1.000000  1.000000  0.999993  0.999931  0.999863  0.999699
                       0.971055  0.910762  0.027023  0.018831  0.006973  0.000029
                       0.000000  0.000000  0.000000  0.000000
                       1.000000  1.000000  0.999993  0.999987  0.999515  0.992432
                       0.947060  0.904557  0.617420  0.408750  0.161966  0.002985
                       0.000000  0.000000  0.000000  0.000000
                       1.000000  1.000000  0.999997  0.999994  0.999425  0.998396
                       0.971556  0.904559  0.534113  0.125966  0.043102  0.000002
                       0.000000  0.000000  0.000000  0.000000
                       1.000000  1.000000  1.000000  0.999999  0.988389  0.967425
                       0.486242  0.295130  0.085249  0.012847  0.005258  0.000000
                       0.000000  0.000000  0.000000  0.000000
                       1.000000  1.000000  0.999998  0.999996  0.999412  0.974800
                       0.953499  0.890225  0.632030  0.012360  0.001529  0.000001
                       0.000000  0.000000  0.000000  0.000000
                       1.000000  1.000000  0.999999  0.999982  0.998362  0.993718
                       0.947689  0.423791  0.080289  0.001611  0.000422  0.000000
                       0.000000  0.000000  0.000000  0.000000
                       1.000000  1.000000  1.000000  0.999999  0.883416  0.581488
                       0.225870  0.055682  0.006167  0.001972  0.000005  0.000000
                       0.000000  0.000000  0.000000  0.000000
              occ2     1.000000  1.000000  0.999996  0.999967  0.999834  0.994669
                       0.934415  0.817980  0.495585  0.424430  0.013745  0.000000
                       0.000000  0.000000  0.000000  0.000000
                       1.000000  1.000000  0.999988  0.999981  0.998663  0.996783
                       0.816785  0.811233  0.177284  0.144070  0.000026  0.000014
                       0.000000  0.000000  0.000000  0.000000
                       1.000000  1.000000  0.999999  0.999997  0.999712  0.991968
                       0.719322  0.456126  0.268015  0.000368  0.000103  0.000000
                       0.000000  0.000000  0.000000  0.000000
                       1.000000  1.000000  0.999999  0.999998  0.973479  0.949552
                       0.329391  0.274395  0.002398  0.000758  0.000000  0.000000
                       0.000000  0.000000  0.000000  0.000000
                       1.000000  1.000000  0.999996  0.999967  0.999833  0.994650
                       0.934154  0.817190  0.494334  0.423362  0.013667  0.000000
                       0.000000  0.000000  0.000000  0.000000
                       1.000000  1.000000  0.999988  0.999981  0.998657  0.996773
                       0.816235  0.810672  0.176476  0.143409  0.000026  0.000014
                       0.000000  0.000000  0.000000  0.000000
                       1.000000  1.000000  0.999999  0.999997  0.999711  0.991926
                       0.718654  0.455065  0.266902  0.000367  0.000103  0.000000
                       0.000000  0.000000  0.000000  0.000000
                       1.000000  1.000000  0.999999  0.999998  0.973346  0.949323
                       0.328616  0.273719  0.002386  0.000755  0.000000  0.000000
                       0.000000  0.000000  0.000000  0.000000
              occ3     1.000000  1.000000  0.999996  0.999967  0.999834  0.994669
                       0.934415  0.817980  0.495585  0.424430  0.013745  0.000000
                       0.000000  0.000000  0.000000  0.000000
                       1.000000  1.000000  0.999988  0.999981  0.998663  0.996783
                       0.816785  0.811233  0.177284  0.144070  0.000026  0.000014
                       0.000000  0.000000  0.000000  0.000000
                       1.000000  1.000000  0.999999  0.999997  0.999712  0.991968
                       0.719322  0.456126  0.268015  0.000368  0.000103  0.000000
                       0.000000  0.000000  0.000000  0.000000
                       1.000000  1.000000  0.999999  0.999998  0.973479  0.949552
                       0.329391  0.274395  0.002398  0.000758  0.000000  0.000000
                       0.000000  0.000000  0.000000  0.000000
                       1.000000  1.000000  0.999996  0.999967  0.999833  0.994650
                       0.934154  0.817190  0.494334  0.423362  0.013667  0.000000
                       0.000000  0.000000  0.000000  0.000000
                       1.000000  1.000000  0.999988  0.999981  0.998657  0.996773
                       0.816235  0.810672  0.176476  0.143409  0.000026  0.000014
                       0.000000  0.000000  0.000000  0.000000
                       1.000000  1.000000  0.999999  0.999997  0.999711  0.991926
                       0.718654  0.455065  0.266902  0.000367  0.000103  0.000000
                       0.000000  0.000000  0.000000  0.000000
                       1.000000  1.000000  0.999999  0.999998  0.973346  0.949323
                       0.328616  0.273719  0.002386  0.000755  0.000000  0.000000
                       0.000000  0.000000  0.000000  0.000000
           occopt           3
           prtdos1          1
           prtdos2          3
           prtdos3          3
           ratsph1     2.00000000E+00 Bohr
           ratsph2     2.40000000E+00 Bohr
           ratsph3     2.40000000E+00 Bohr
            rprim      5.0000000000E-01 -5.0000000000E-01  0.0000000000E+00
                       5.0000000000E-01  5.0000000000E-01  0.0000000000E+00
                       0.0000000000E+00  0.0000000000E+00  1.0000000000E+00
           shiftk      5.00000000E-01  5.00000000E-01  5.00000000E-01
          spgroup          47
           spinat      0.0000000000E+00  0.0000000000E+00  4.0000000000E+00
                       0.0000000000E+00  0.0000000000E+00 -4.0000000000E+00
           strten1     2.0102696777E-02  2.0102696777E-02  1.8343984223E-02
                       0.0000000000E+00  0.0000000000E+00  7.0658541420E-04
           symafm        1   -1    1   -1    1   -1    1   -1    1   -1
                         1   -1    1   -1    1   -1
           symrel      1  0  0   0  1  0   0  0  1       1  0  0   0  1  0   0  0  1
                      -1  0  0   0 -1  0   0  0 -1      -1  0  0   0 -1  0   0  0 -1
                      -1  0  0   0  1  0   0  0 -1      -1  0  0   0  1  0   0  0 -1
                       1  0  0   0 -1  0   0  0  1       1  0  0   0 -1  0   0  0  1
                      -1  0  0   0 -1  0   0  0  1      -1  0  0   0 -1  0   0  0  1
                       1  0  0   0  1  0   0  0 -1       1  0  0   0  1  0   0  0 -1
                       1  0  0   0 -1  0   0  0 -1       1  0  0   0 -1  0   0  0 -1
                      -1  0  0   0  1  0   0  0  1      -1  0  0   0  1  0   0  0  1
            tnons      0.0000000  0.0000000  0.0000000     0.5000000  0.0000000  0.5000000
                       0.0000000  0.0000000  0.0000000     0.5000000  0.0000000  0.5000000
                       0.0000000  0.0000000  0.0000000     0.5000000  0.0000000  0.5000000
                       0.0000000  0.0000000  0.0000000     0.5000000  0.0000000  0.5000000
                       0.0000000  0.0000000  0.0000000     0.5000000  0.0000000  0.5000000
                       0.0000000  0.0000000  0.0000000     0.5000000  0.0000000  0.5000000
                       0.0000000  0.0000000  0.0000000     0.5000000  0.0000000  0.5000000
                       0.0000000  0.0000000  0.0000000     0.5000000  0.0000000  0.5000000
           tolwfr      1.00000000E-07
            typat      1  1
              wtk1       0.05556    0.05556    0.05556    0.05556    0.05556    0.05556
                         0.05556    0.05556    0.05556    0.05556    0.05556    0.05556
                         0.05556    0.05556    0.05556    0.05556    0.05556    0.05556
              wtk2       0.44444    0.22222    0.22222    0.11111
              wtk3       0.44444    0.22222    0.22222    0.11111
           xangst      0.0000000000E+00  0.0000000000E+00  0.0000000000E+00
                       8.7314239417E-01 -8.7314239417E-01  1.7462847883E+00
            xcart      0.0000000000E+00  0.0000000000E+00  0.0000000000E+00
                       1.6500000000E+00 -1.6500000000E+00  3.3000000000E+00
             xred      0.0000000000E+00  0.0000000000E+00  0.0000000000E+00
                       5.0000000000E-01  0.0000000000E+00  5.0000000000E-01
            znucl       26.00000

================================================================================
  

================================================================================

 Suggested references for the acknowledgment of ABINIT usage.

 The users of ABINIT have little formal obligations with respect to the ABINIT group
 (those specified in the GNU General Public License, http://www.gnu.org/copyleft/gpl.txt).
 However, it is common practice in the scientific literature,
 to acknowledge the efforts of people that have made the research possible.
 In this spirit, please find below suggested citations of work written by ABINIT developers,
 corresponding to implementations inside of ABINIT that you have used in the present run.
 Note also that it will be of great value to readers of publications presenting these results,
 to read papers enabling them to understand the theoretical formalism and details
 of the ABINIT implementation.
 For information on why they are suggested, see also https://docs.abinit.org/theory/acknowledgments.
-
- [1] Recent developments in the ABINIT software package.
- Computer Phys. Comm. 205, 106 (2016).
- X.Gonze, F.Jollet, F.Abreu Araujo, D.Adams, B.Amadon, T.Applencourt,
- C.Audouze, J.-M.Beuken, J.Bieder, A.Bokhanchuk, E.Bousquet, F.Bruneval
- D.Caliste, M.Cote, F.Dahm, F.Da Pieve, M.Delaveau, M.Di Gennaro,
- B.Dorado, C.Espejo, G.Geneste, L.Genovese, A.Gerossier, M.Giantomassi,
- Y.Gillet, D.R.Hamann, L.He, G.Jomard, J.Laflamme Janssen, S.Le Roux,
- A.Levitt, A.Lherbier, F.Liu, I.Lukacevic, A.Martin, C.Martins,
- M.J.T.Oliveira, S.Ponce, Y.Pouillon, T.Rangel, G.-M.Rignanese,
- A.H.Romero, B.Rousseau, O.Rubel, A.A.Shukri, M.Stankovski, M.Torrent,
- M.J.Van Setten, B.Van Troeye, M.J.Verstraete, D.Waroquier, J.Wiktor,
- B.Xu, A.Zhou, J.W.Zwanziger.
- Comment : the fourth generic paper describing the ABINIT project.
- Note that a version of this paper, that is not formatted for Computer Phys. Comm. 
- is available at https://www.abinit.org/about/ABINIT16.pdf .
- The licence allows the authors to put it on the Web.
- DOI and bibtex : see https://docs.abinit.org/theory/bibliography/#gonze2016
-
- [2] ABINIT : First-principles approach of materials and nanosystem properties.
- Computer Phys. Comm. 180, 2582-2615 (2009).
- X. Gonze, B. Amadon, P.-M. Anglade, J.-M. Beuken, F. Bottin, P. Boulanger, F. Bruneval,
- D. Caliste, R. Caracas, M. Cote, T. Deutsch, L. Genovese, Ph. Ghosez, M. Giantomassi
- S. Goedecker, D.R. Hamann, P. Hermet, F. Jollet, G. Jomard, S. Leroux, M. Mancini, S. Mazevet,
- M.J.T. Oliveira, G. Onida, Y. Pouillon, T. Rangel, G.-M. Rignanese, D. Sangalli, R. Shaltaf,
- M. Torrent, M.J. Verstraete, G. Zerah, J.W. Zwanziger
- Comment : the third generic paper describing the ABINIT project.
- Note that a version of this paper, that is not formatted for Computer Phys. Comm. 
- is available at https://www.abinit.org/about/ABINIT_CPC_v10.pdf .
- The licence allows the authors to put it on the Web.
- DOI and bibtex : see https://docs.abinit.org/theory/bibliography/#gonze2009
-
- [3] A brief introduction to the ABINIT software package.
- Z. Kristallogr. 220, 558-562 (2005).
- X. Gonze, G.-M. Rignanese, M. Verstraete, J.-M. Beuken, Y. Pouillon, R. Caracas, F. Jollet,
- M. Torrent, G. Zerah, M. Mikami, Ph. Ghosez, M. Veithen, J.-Y. Raty, V. Olevano, F. Bruneval,
- L. Reining, R. Godby, G. Onida, D.R. Hamann, and D.C. Allan.
- Comment : the second generic paper describing the ABINIT project. Note that this paper
- should be cited especially if you are using the GW part of ABINIT, as several authors
- of this part are not in the list of authors of the first or third paper.
- The .pdf of the latter paper is available at https://www.abinit.org/about/zfk_0505-06_558-562.pdf.
- Note that it should not redistributed (Copyright by Oldenburg Wissenshaftverlag,
- the licence allows the authors to put it on the Web).
- DOI and bibtex : see https://docs.abinit.org/theory/bibliography/#gonze2005
-
- And optionally:
-
- [4] First-principles computation of material properties : the ABINIT software project. 
- X. Gonze, J.-M. Beuken, R. Caracas, F. Detraux, M. Fuchs, G.-M. Rignanese, L. Sindic,
- M. Verstraete, G. Zerah, F. Jollet, M. Torrent, A. Roy, M. Mikami, Ph. Ghosez, J.-Y. Raty, D.C. Allan.
- Computational Materials Science 25, 478-492 (2002). http://dx.doi.org/10.1016/S0927-0256(02)00325-7
- Comment : the original paper describing the ABINIT project.
- DOI and bibtex : see https://docs.abinit.org/theory/bibliography/#gonze2002
  Asked to delete not existent file: tspin_3_STATUS
 Proc.   0 individual time (sec): cpu=         43.9  wall=         43.9

 Calculation completed.
.Delivered   0 WARNINGs and   0 COMMENTs to log file.

--- !FinalSummary
program: abinit
version: 8.10.3
start_datetime: Mon Oct 28 14:32:02 2019
end_datetime: Mon Oct 28 14:32:45 2019
overall_cpu_time:          87.4
overall_wall_time:          87.8
exit_requested_by_user: no 
timelimit: 0
pseudos: 
    Fe  : 04ce328394cac36b238b072f266c7568
usepaw: 0
mpi_procs: 2
omp_threads: 1
num_warnings: 0
num_comments: 0
...
