
.Version 8.11.13 of ABINIT 
.(MPI version, prepared for a x86_64_linux_intel14.0 computer) 

.Copyright (C) 1998-2019 ABINIT group . 
 ABINIT comes with ABSOLUTELY NO WARRANTY.
 It is free software, and you are welcome to redistribute it
 under certain conditions (GNU General Public License,
 see ~abinit/COPYING or http://www.gnu.org/copyleft/gpl.txt).

 ABINIT is a project of the Universite Catholique de Louvain,
 Corning Inc. and other collaborators, see ~abinit/doc/developers/contributors.txt .
 Please read https://docs.abinit.org/theory/acknowledgments for suggested
 acknowledgments of the ABINIT effort.
 For more information, see https://www.abinit.org .

.Starting date : Fri 10 Jan 2020.
- ( at 15h00 )
  
- input  file    -> ddb.in
- output file    -> ddb.out
- root for input  files -> ddbi
- root for output files -> ddbo
 
 
 DATASET    1 : space group Fd -3 m (#227); Bravais cF (face-center cubic)
================================================================================
 Values of the parameters that define the memory need for DATASET  1.
     intxc =       0    ionmov =       0      iscf =       7    lmnmax =       6
     lnmax =       6     mgfft =      30  mpssoang =       3    mqgrid =    3001
     natom =       2  nloc_mem =       1    nspden =       1   nspinor =       1
    nsppol =       1      nsym =      48    n1xccc =    2501    ntypat =       1
    occopt =       1   xclevel =       2
-    mband =           6        mffmem =           1         mkmem =           1
       mpw =         863          nfft =       27000          nkpt =          10
================================================================================
P This job should need less than                       9.495 Mbytes of memory.
  Rough estimation (10% accuracy) of disk space for files :
_ WF disk file :      0.792 Mbytes ; DEN or POT disk file :      0.208 Mbytes.
================================================================================
 
 
 DATASET    2 : space group Fd -3 m (#227); Bravais cF (face-center cubic)
================================================================================
 Values of the parameters that define the memory need for DATASET  2 (RF).
     intxc =       0      iscf =      -3    lmnmax =       6     lnmax =       6
     mgfft =      30  mpssoang =       3    mqgrid =    3001     natom =       2
  nloc_mem =       1    nspden =       1   nspinor =       1    nsppol =       1
      nsym =      48    n1xccc =    2501    ntypat =       1    occopt =       1
   xclevel =       2
-    mband =           6        mffmem =           1         mkmem =           5
-   mkqmem =           5        mk1mem =           5           mpw =         863
      nfft =       27000          nkpt =         128
================================================================================
P This job should need less than                       7.771 Mbytes of memory.
  Rough estimation (10% accuracy) of disk space for files :
_ WF disk file :     10.115 Mbytes ; DEN or POT disk file :      0.208 Mbytes.
================================================================================
 
 
 DATASET    3 : space group Fd -3 m (#227); Bravais cF (face-center cubic)
================================================================================
 Values of the parameters that define the memory need for DATASET  3 (RF).
     intxc =       0      iscf =       7    lmnmax =       6     lnmax =       6
     mgfft =      30  mpssoang =       3    mqgrid =    3001     natom =       2
  nloc_mem =       1    nspden =       1   nspinor =       1    nsppol =       1
      nsym =      48    n1xccc =    2501    ntypat =       1    occopt =       1
   xclevel =       2
-    mband =           6        mffmem =           1         mkmem =           5
-   mkqmem =           5        mk1mem =           5           mpw =         863
      nfft =       27000          nkpt =         128
================================================================================
P This job should need less than                       7.977 Mbytes of memory.
  Rough estimation (10% accuracy) of disk space for files :
_ WF disk file :     10.115 Mbytes ; DEN or POT disk file :      0.208 Mbytes.
================================================================================
 
--------------------------------------------------------------------------------
------------- Echo of variables that govern the present computation ------------
--------------------------------------------------------------------------------
-
- outvars: echo of selected default values                                      
-   iomode0 =  0 , fftalg0 =312 , wfoptalg0 =  0
-
- outvars: echo of global parameters not present in the input file              
-  max_nthreads =    0
-
 -outvars: echo values of preprocessed input variables --------
            acell      7.3076537532E+00  7.3076537532E+00  7.3076537532E+00 Bohr
              amu      2.80855000E+01
           diemac      1.20000000E+01
             ecut      1.60000000E+01 Hartree
-          fftalg         312
           getddk1          0
           getddk2          0
           getddk3         -1
           getwfk1          0
           getwfk2          1
           getwfk3          1
             iscf1          7
             iscf2         -3
             iscf3          7
              ixc          11
           jdtset        1    2    3
              kpt1    -1.25000000E-01 -2.50000000E-01  0.00000000E+00
                      -1.25000000E-01  5.00000000E-01  0.00000000E+00
                      -2.50000000E-01 -3.75000000E-01  0.00000000E+00
                      -1.25000000E-01 -3.75000000E-01  1.25000000E-01
                      -1.25000000E-01  2.50000000E-01  0.00000000E+00
                      -2.50000000E-01  3.75000000E-01  0.00000000E+00
                      -3.75000000E-01  5.00000000E-01  0.00000000E+00
                      -2.50000000E-01  5.00000000E-01  1.25000000E-01
                      -1.25000000E-01  0.00000000E+00  0.00000000E+00
                      -3.75000000E-01  0.00000000E+00  0.00000000E+00
              kpt2    -1.25000000E-01 -2.50000000E-01  0.00000000E+00
                      -2.50000000E-01 -1.25000000E-01  0.00000000E+00
                      -1.25000000E-01 -1.25000000E-01  1.25000000E-01
                      -1.25000000E-01  5.00000000E-01  0.00000000E+00
                      -2.50000000E-01 -3.75000000E-01  0.00000000E+00
                      -1.25000000E-01 -3.75000000E-01  1.25000000E-01
                      -3.75000000E-01 -2.50000000E-01  0.00000000E+00
                      -2.50000000E-01 -2.50000000E-01  1.25000000E-01
                      -1.25000000E-01 -2.50000000E-01  2.50000000E-01
                       5.00000000E-01 -1.25000000E-01  0.00000000E+00
                      -3.75000000E-01 -1.25000000E-01  1.25000000E-01
                      -2.50000000E-01 -1.25000000E-01  2.50000000E-01
                      -1.25000000E-01 -1.25000000E-01  3.75000000E-01
                      -1.25000000E-01  2.50000000E-01  0.00000000E+00
                      -2.50000000E-01  3.75000000E-01  0.00000000E+00
                      -1.25000000E-01  3.75000000E-01  1.25000000E-01
                      -3.75000000E-01  5.00000000E-01  0.00000000E+00
                      -2.50000000E-01  5.00000000E-01  1.25000000E-01
                      -1.25000000E-01  5.00000000E-01  2.50000000E-01
                       5.00000000E-01 -3.75000000E-01  0.00000000E+00
                      -3.75000000E-01 -3.75000000E-01  1.25000000E-01
                      -2.50000000E-01 -3.75000000E-01  2.50000000E-01
                      -1.25000000E-01 -3.75000000E-01  3.75000000E-01
                       3.75000000E-01 -2.50000000E-01  0.00000000E+00
                       5.00000000E-01 -2.50000000E-01  1.25000000E-01
                      -3.75000000E-01 -2.50000000E-01  2.50000000E-01
                      -2.50000000E-01 -2.50000000E-01  3.75000000E-01
                      -1.25000000E-01 -2.50000000E-01  5.00000000E-01
                       2.50000000E-01 -1.25000000E-01  0.00000000E+00
                       3.75000000E-01 -1.25000000E-01  1.25000000E-01
                       5.00000000E-01 -1.25000000E-01  2.50000000E-01
                      -3.75000000E-01 -1.25000000E-01  3.75000000E-01
                      -2.50000000E-01 -1.25000000E-01  5.00000000E-01
                      -1.25000000E-01 -1.25000000E-01 -3.75000000E-01
                      -1.25000000E-01  0.00000000E+00  0.00000000E+00
                      -1.25000000E-01  1.25000000E-01  1.25000000E-01
                      -2.50000000E-01  2.50000000E-01  1.25000000E-01
                      -1.25000000E-01  2.50000000E-01  2.50000000E-01
                      -3.75000000E-01  3.75000000E-01  1.25000000E-01
                      -2.50000000E-01  3.75000000E-01  2.50000000E-01
                      -1.25000000E-01  3.75000000E-01  3.75000000E-01
                       5.00000000E-01  5.00000000E-01  1.25000000E-01
                      -3.75000000E-01  5.00000000E-01  2.50000000E-01
                      -2.50000000E-01  5.00000000E-01  3.75000000E-01
                      -1.25000000E-01  5.00000000E-01  5.00000000E-01
                       3.75000000E-01 -3.75000000E-01  1.25000000E-01
                       5.00000000E-01 -3.75000000E-01  2.50000000E-01
                      -3.75000000E-01 -3.75000000E-01  3.75000000E-01
                      -2.50000000E-01 -3.75000000E-01  5.00000000E-01
                      -1.25000000E-01 -3.75000000E-01 -3.75000000E-01
              kpt3    -1.25000000E-01 -2.50000000E-01  0.00000000E+00
                      -2.50000000E-01 -1.25000000E-01  0.00000000E+00
                      -1.25000000E-01 -1.25000000E-01  1.25000000E-01
                      -1.25000000E-01  5.00000000E-01  0.00000000E+00
                      -2.50000000E-01 -3.75000000E-01  0.00000000E+00
                      -1.25000000E-01 -3.75000000E-01  1.25000000E-01
                      -3.75000000E-01 -2.50000000E-01  0.00000000E+00
                      -2.50000000E-01 -2.50000000E-01  1.25000000E-01
                      -1.25000000E-01 -2.50000000E-01  2.50000000E-01
                       5.00000000E-01 -1.25000000E-01  0.00000000E+00
                      -3.75000000E-01 -1.25000000E-01  1.25000000E-01
                      -2.50000000E-01 -1.25000000E-01  2.50000000E-01
                      -1.25000000E-01 -1.25000000E-01  3.75000000E-01
                      -1.25000000E-01  2.50000000E-01  0.00000000E+00
                      -2.50000000E-01  3.75000000E-01  0.00000000E+00
                      -1.25000000E-01  3.75000000E-01  1.25000000E-01
                      -3.75000000E-01  5.00000000E-01  0.00000000E+00
                      -2.50000000E-01  5.00000000E-01  1.25000000E-01
                      -1.25000000E-01  5.00000000E-01  2.50000000E-01
                       5.00000000E-01 -3.75000000E-01  0.00000000E+00
                      -3.75000000E-01 -3.75000000E-01  1.25000000E-01
                      -2.50000000E-01 -3.75000000E-01  2.50000000E-01
                      -1.25000000E-01 -3.75000000E-01  3.75000000E-01
                       3.75000000E-01 -2.50000000E-01  0.00000000E+00
                       5.00000000E-01 -2.50000000E-01  1.25000000E-01
                      -3.75000000E-01 -2.50000000E-01  2.50000000E-01
                      -2.50000000E-01 -2.50000000E-01  3.75000000E-01
                      -1.25000000E-01 -2.50000000E-01  5.00000000E-01
                       2.50000000E-01 -1.25000000E-01  0.00000000E+00
                       3.75000000E-01 -1.25000000E-01  1.25000000E-01
                       5.00000000E-01 -1.25000000E-01  2.50000000E-01
                      -3.75000000E-01 -1.25000000E-01  3.75000000E-01
                      -2.50000000E-01 -1.25000000E-01  5.00000000E-01
                      -1.25000000E-01 -1.25000000E-01 -3.75000000E-01
                      -1.25000000E-01  0.00000000E+00  0.00000000E+00
                      -1.25000000E-01  1.25000000E-01  1.25000000E-01
                      -2.50000000E-01  2.50000000E-01  1.25000000E-01
                      -1.25000000E-01  2.50000000E-01  2.50000000E-01
                      -3.75000000E-01  3.75000000E-01  1.25000000E-01
                      -2.50000000E-01  3.75000000E-01  2.50000000E-01
                      -1.25000000E-01  3.75000000E-01  3.75000000E-01
                       5.00000000E-01  5.00000000E-01  1.25000000E-01
                      -3.75000000E-01  5.00000000E-01  2.50000000E-01
                      -2.50000000E-01  5.00000000E-01  3.75000000E-01
                      -1.25000000E-01  5.00000000E-01  5.00000000E-01
                       3.75000000E-01 -3.75000000E-01  1.25000000E-01
                       5.00000000E-01 -3.75000000E-01  2.50000000E-01
                      -3.75000000E-01 -3.75000000E-01  3.75000000E-01
                      -2.50000000E-01 -3.75000000E-01  5.00000000E-01
                      -1.25000000E-01 -3.75000000E-01 -3.75000000E-01
                       outvar_i_n : Printing only first  50 k-points.
           kptopt1          1
           kptopt2          2
           kptopt3          2
         kptrlatt        4   -4    4     -4    4    4     -4   -4    4
          kptrlen      4.13383349E+01
P           mkmem1          1
P           mkmem2          5
P           mkmem3          5
P          mkqmem1          1
P          mkqmem2          5
P          mkqmem3          5
P          mk1mem1          1
P          mk1mem2          5
P          mk1mem3          5
            natom           2
            nband1          6
            nband2          6
            nband3          6
           ndtset           3
            ngfft          30      30      30
             nkpt1         10
             nkpt2        128
             nkpt3        128
             nqpt1          0
             nqpt2          1
             nqpt3          1
            nstep          40
             nsym          48
           ntypat           1
              occ1     2.000000  2.000000  2.000000  2.000000  0.000000  0.000000
              occ2     2.000000  2.000000  2.000000  2.000000  0.000000  0.000000
              occ3     2.000000  2.000000  2.000000  2.000000  0.000000  0.000000
        optdriver1          0
        optdriver2          1
        optdriver3          1
          rfatpol           1       2
            rfdir           1       1       1
           rfelfd1          0
           rfelfd2          2
           rfelfd3          3
           rfphon1          0
           rfphon2          0
           rfphon3          1
            rprim      7.0710682721E-01  7.0710682721E-01  0.0000000000E+00
                       0.0000000000E+00  7.0710682721E-01  7.0710682721E-01
                       7.0710682721E-01  0.0000000000E+00  7.0710682721E-01
           shiftk      5.00000000E-01  5.00000000E-01  5.00000000E-01
          spgroup         227
           symrel      1  0  0   0  1  0   0  0  1      -1  0  0   0 -1  0   0  0 -1
                       0 -1  1   0 -1  0   1 -1  0       0  1 -1   0  1  0  -1  1  0
                      -1  0  0  -1  0  1  -1  1  0       1  0  0   1  0 -1   1 -1  0
                       0  1 -1   1  0 -1   0  0 -1       0 -1  1  -1  0  1   0  0  1
                      -1  0  0  -1  1  0  -1  0  1       1  0  0   1 -1  0   1  0 -1
                       0 -1  1   1 -1  0   0 -1  0       0  1 -1  -1  1  0   0  1  0
                       1  0  0   0  0  1   0  1  0      -1  0  0   0  0 -1   0 -1  0
                       0  1 -1   0  0 -1   1  0 -1       0 -1  1   0  0  1  -1  0  1
                      -1  0  1  -1  1  0  -1  0  0       1  0 -1   1 -1  0   1  0  0
                       0 -1  0   1 -1  0   0 -1  1       0  1  0  -1  1  0   0  1 -1
                       1  0 -1   0  0 -1   0  1 -1      -1  0  1   0  0  1   0 -1  1
                       0  1  0   0  0  1   1  0  0       0 -1  0   0  0 -1  -1  0  0
                       1  0 -1   0  1 -1   0  0 -1      -1  0  1   0 -1  1   0  0  1
                       0 -1  0   0 -1  1   1 -1  0       0  1  0   0  1 -1  -1  1  0
                      -1  0  1  -1  0  0  -1  1  0       1  0 -1   1  0  0   1 -1  0
                       0  1  0   1  0  0   0  0  1       0 -1  0  -1  0  0   0  0 -1
                       0  0 -1   0  1 -1   1  0 -1       0  0  1   0 -1  1  -1  0  1
                       1 -1  0   0 -1  1   0 -1  0      -1  1  0   0  1 -1   0  1  0
                       0  0  1   1  0  0   0  1  0       0  0 -1  -1  0  0   0 -1  0
                      -1  1  0  -1  0  0  -1  0  1       1 -1  0   1  0  0   1  0 -1
                       0  0  1   0  1  0   1  0  0       0  0 -1   0 -1  0  -1  0  0
                       1 -1  0   0 -1  0   0 -1  1      -1  1  0   0  1  0   0  1 -1
                       0  0 -1   1  0 -1   0  1 -1       0  0  1  -1  0  1   0 -1  1
                      -1  1  0  -1  0  1  -1  0  0       1 -1  0   1  0 -1   1  0  0
            tnons      0.0000000  0.0000000  0.0000000     0.2500000  0.2500000  0.2500000
                       0.0000000  0.0000000  0.0000000     0.2500000  0.2500000  0.2500000
                       0.0000000  0.0000000  0.0000000     0.2500000  0.2500000  0.2500000
                       0.0000000  0.0000000  0.0000000     0.2500000  0.2500000  0.2500000
                       0.0000000  0.0000000  0.0000000     0.2500000  0.2500000  0.2500000
                       0.0000000  0.0000000  0.0000000     0.2500000  0.2500000  0.2500000
                       0.0000000  0.0000000  0.0000000     0.2500000  0.2500000  0.2500000
                       0.0000000  0.0000000  0.0000000     0.2500000  0.2500000  0.2500000
                       0.0000000  0.0000000  0.0000000     0.2500000  0.2500000  0.2500000
                       0.0000000  0.0000000  0.0000000     0.2500000  0.2500000  0.2500000
                       0.0000000  0.0000000  0.0000000     0.2500000  0.2500000  0.2500000
                       0.0000000  0.0000000  0.0000000     0.2500000  0.2500000  0.2500000
                       0.0000000  0.0000000  0.0000000     0.2500000  0.2500000  0.2500000
                       0.0000000  0.0000000  0.0000000     0.2500000  0.2500000  0.2500000
                       0.0000000  0.0000000  0.0000000     0.2500000  0.2500000  0.2500000
                       0.0000000  0.0000000  0.0000000     0.2500000  0.2500000  0.2500000
                       0.0000000  0.0000000  0.0000000     0.2500000  0.2500000  0.2500000
                       0.0000000  0.0000000  0.0000000     0.2500000  0.2500000  0.2500000
                       0.0000000  0.0000000  0.0000000     0.2500000  0.2500000  0.2500000
                       0.0000000  0.0000000  0.0000000     0.2500000  0.2500000  0.2500000
                       0.0000000  0.0000000  0.0000000     0.2500000  0.2500000  0.2500000
                       0.0000000  0.0000000  0.0000000     0.2500000  0.2500000  0.2500000
                       0.0000000  0.0000000  0.0000000     0.2500000  0.2500000  0.2500000
                       0.0000000  0.0000000  0.0000000     0.2500000  0.2500000  0.2500000
           tolvrs1     1.00000000E-10
           tolvrs2     0.00000000E+00
           tolvrs3     1.00000000E-08
           tolwfr1     0.00000000E+00
           tolwfr2     1.00000000E-20
           tolwfr3     0.00000000E+00
            typat      1  1
              wtk1       0.09375    0.09375    0.09375    0.18750    0.09375    0.09375
                         0.09375    0.18750    0.03125    0.03125
              wtk2       0.00781    0.00781    0.00781    0.00781    0.00781    0.00781
                         0.00781    0.00781    0.00781    0.00781    0.00781    0.00781
                         0.00781    0.00781    0.00781    0.00781    0.00781    0.00781
                         0.00781    0.00781    0.00781    0.00781    0.00781    0.00781
                         0.00781    0.00781    0.00781    0.00781    0.00781    0.00781
                         0.00781    0.00781    0.00781    0.00781    0.00781    0.00781
                         0.00781    0.00781    0.00781    0.00781    0.00781    0.00781
                         0.00781    0.00781    0.00781    0.00781    0.00781    0.00781
                         0.00781    0.00781
              wtk3       0.00781    0.00781    0.00781    0.00781    0.00781    0.00781
                         0.00781    0.00781    0.00781    0.00781    0.00781    0.00781
                         0.00781    0.00781    0.00781    0.00781    0.00781    0.00781
                         0.00781    0.00781    0.00781    0.00781    0.00781    0.00781
                         0.00781    0.00781    0.00781    0.00781    0.00781    0.00781
                         0.00781    0.00781    0.00781    0.00781    0.00781    0.00781
                         0.00781    0.00781    0.00781    0.00781    0.00781    0.00781
                         0.00781    0.00781    0.00781    0.00781    0.00781    0.00781
                         0.00781    0.00781
                       outvars : Printing only first  50 k-points.
           xangst      0.0000000000E+00  0.0000000000E+00  0.0000000000E+00
                       1.3672065412E+00  1.3672065412E+00  1.3672065412E+00
            xcart      0.0000000000E+00  0.0000000000E+00  0.0000000000E+00
                       2.5836459299E+00  2.5836459299E+00  2.5836459299E+00
             xred      0.0000000000E+00  0.0000000000E+00  0.0000000000E+00
                       2.5000000000E-01  2.5000000000E-01  2.5000000000E-01
            znucl       14.00000
 
================================================================================
 
 chkinp: Checking input parameters for consistency, jdtset=   1.
 
 chkinp: Checking input parameters for consistency, jdtset=   2.
 
 chkinp: Checking input parameters for consistency, jdtset=   3.
 
================================================================================
== DATASET  1 ==================================================================
-   nproc =   28   -> not optimal: autoparal keyword recommended in input file
 
 Exchange-correlation functional for the present dataset will be:
  GGA: Perdew-Burke-Ernzerhof functional - ixc=11
 Citation for XC functional:
  J.P.Perdew, K.Burke, M.Ernzerhof, PRL 77, 3865 (1996)
 
 Real(R)+Recip(G) space primitive vectors, cartesian coordinates (Bohr,Bohr^-1):
 R(1)=  5.1672919  5.1672919  0.0000000  G(1)=  0.0967625  0.0967625 -0.0967625
 R(2)=  0.0000000  5.1672919  5.1672919  G(2)= -0.0967625  0.0967625  0.0967625
 R(3)=  5.1672919  0.0000000  5.1672919  G(3)=  0.0967625 -0.0967625  0.0967625
 Unit cell volume ucvol=  2.7594274E+02 bohr^3
 Angles (23,13,12)=  6.00000000E+01  6.00000000E+01  6.00000000E+01 degrees
 
 getcut: wavevector=  0.0000  0.0000  0.0000  ngfft=  30  30  30
         ecut(hartree)=     16.000   => boxcut(ratio)=   2.28244
 
 getcut : COMMENT -
  Note that boxcut > 2.2 ; recall that boxcut=Gcut(box)/Gcut(sphere) = 2
  is sufficient for exact treatment of convolution.
  Such a large boxcut is a waste : you could raise ecut
  e.g. ecut=   20.838205 Hartrees makes boxcut=2
 
 
--- Pseudopotential description ------------------------------------------------
- pspini: atom type   1  psp file is /CECI/home/ucl/naps/jovbever/.PsP/Si/Si.psp8
- pspatm: opening atomic psp file    /CECI/home/ucl/naps/jovbever/.PsP/Si/Si.psp8
- Si    ONCVPSP-3.2.3.1  r_core=   1.60303   1.72197   1.91712
- 14.00000   4.00000    170510                znucl, zion, pspdat
    8   11    2    4       600   0.00000      pspcod,pspxc,lmax,lloc,mmax,r2well
    5.99000000000000    4.00000000000000    0.00000000000000   rchrg,fchrg,qchrg
     nproj     2     2     2
     extension_switch     1
  pspatm : epsatm=    9.34321699
         --- l  ekb(1:nproj) -->
             0    5.168965    0.829883
             1    2.571282    0.578307
             2   -2.427311   -0.488097
 pspatm: atomic psp has been read  and splines computed
 
   1.49491472E+02                                ecore*ucvol(ha*bohr**3)
--------------------------------------------------------------------------------
 
_setup2: Arith. and geom. avg. npw (full set) are     844.031     844.011
 
================================================================================
 
     iter   Etot(hartree)      deltaE(h)  residm     vres2
 ETOT  1  -8.4580080295445    -8.458E+00 8.130E-03 5.819E+00
 ETOT  2  -8.4624167447122    -4.409E-03 1.416E-03 1.133E-01
 ETOT  3  -8.4624446025955    -2.786E-05 5.362E-04 9.214E-04
 ETOT  4  -8.4624447215013    -1.189E-07 7.744E-04 5.193E-05
 ETOT  5  -8.4624447280690    -6.568E-09 3.111E-05 8.762E-07
 ETOT  6  -8.4624447281209    -5.190E-11 3.704E-05 5.739E-09
 ETOT  7  -8.4624447281215    -6.128E-13 3.357E-06 7.975E-11
 
 At SCF step    7       vres2   =  7.98E-11 < tolvrs=  1.00E-10 =>converged.
 
 Cartesian components of stress tensor (hartree/bohr^3)
  sigma(1 1)=  1.34948923E-06  sigma(3 2)=  0.00000000E+00
  sigma(2 2)=  1.34948923E-06  sigma(3 1)=  0.00000000E+00
  sigma(3 3)=  1.34948923E-06  sigma(2 1)=  0.00000000E+00
 
 Integrated electronic density in atomic spheres:
 ------------------------------------------------
 Atom  Sphere_radius  Integrated_density
    1        2.00000          1.77912981
    2        2.00000          1.77279045
================================================================================
 
 ----iterations are completed or convergence reached----
 
 Mean square residual over all n,k,spin=   14.509E-08; max=  33.569E-07
 reduced coordinates (array xred) for    2 atoms
       0.000000000000      0.000000000000      0.000000000000
       0.250000000000      0.250000000000      0.250000000000
 rms dE/dt=  2.7158E-30; max dE/dt=  4.2073E-30; dE/dt below (all hartree)
    1       0.000000000000      0.000000000000     -0.000000000000
    2       0.000000000000     -0.000000000000      0.000000000000
 
 cartesian coordinates (angstrom) at end:
    1      0.00000000000000     0.00000000000000     0.00000000000000
    2      1.36720654116265     1.36720654116265     1.36720654116265
 
 cartesian forces (hartree/bohr) at end:
    1      0.00000000000000    -0.00000000000000    -0.00000000000000
    2     -0.00000000000000     0.00000000000000     0.00000000000000
 frms,max,avg= 5.1226225E-31 6.1065713E-31   0.000E+00  0.000E+00  0.000E+00 h/b
 
 cartesian forces (eV/Angstrom) at end:
    1      0.00000000000000    -0.00000000000000    -0.00000000000000
    2     -0.00000000000000     0.00000000000000     0.00000000000000
 frms,max,avg= 2.6341582E-29 3.1401250E-29   0.000E+00  0.000E+00  0.000E+00 e/A
 length scales=  7.307653753200  7.307653753200  7.307653753200 bohr
              =  3.867043814461  3.867043814461  3.867043814461 angstroms
 prteigrs : about to open file ddbo_DS1_EIG
 Fermi (or HOMO) energy (hartree) =   0.14281   Average Vxc (hartree)=  -0.33848
 Eigenvalues (hartree) for nkpt=  10  k points:
 kpt#   1, nband=  6, wtk=  0.09375, kpt= -0.1250 -0.2500  0.0000 (reduced coord)
  -0.25443    0.03516    0.10574    0.10806    0.23187    0.28595
 prteigrs : prtvol=0 or 1, do not print more k-points.
 
 
--------------------------------------------------------------------------------
 Components of total free energy (in Hartree) :
 
    Kinetic energy  =  3.04300841602855E+00
    Hartree energy  =  5.57076368482166E-01
    XC energy       = -3.08031471310534E+00
    Ewald energy    = -8.33983942122738E+00
    PspCore energy  =  5.41748161009699E-01
    Loc. psp. energy= -2.33216235574074E+00
    NL   psp  energy=  1.14803881643150E+00
    >>>>>>>>> Etotal= -8.46244472812155E+00
 
 Other information on the energy :
    Total energy(eV)= -2.30274831890949E+02 ; Band energy (Ha)=  -2.4607946373E-01
--------------------------------------------------------------------------------
 
 
 
 Cartesian components of stress tensor (hartree/bohr^3)
  sigma(1 1)=  1.34948923E-06  sigma(3 2)=  0.00000000E+00
  sigma(2 2)=  1.34948923E-06  sigma(3 1)=  0.00000000E+00
  sigma(3 3)=  1.34948923E-06  sigma(2 1)=  0.00000000E+00
 
-Cartesian components of stress tensor (GPa)         [Pressure= -3.9703E-02 GPa]
- sigma(1 1)=  3.97033373E-02  sigma(3 2)=  0.00000000E+00
- sigma(2 2)=  3.97033373E-02  sigma(3 1)=  0.00000000E+00
- sigma(3 3)=  3.97033373E-02  sigma(2 1)=  0.00000000E+00
 
================================================================================
== DATASET  2 ==================================================================
-   nproc =   28
 
 mkfilename : getwfk/=0, take file _WFK from output of DATASET   1.
 
 Exchange-correlation functional for the present dataset will be:
  GGA: Perdew-Burke-Ernzerhof functional - ixc=11
 Citation for XC functional:
  J.P.Perdew, K.Burke, M.Ernzerhof, PRL 77, 3865 (1996)
 
 Real(R)+Recip(G) space primitive vectors, cartesian coordinates (Bohr,Bohr^-1):
 R(1)=  5.1672919  5.1672919  0.0000000  G(1)=  0.0967625  0.0967625 -0.0967625
 R(2)=  0.0000000  5.1672919  5.1672919  G(2)= -0.0967625  0.0967625  0.0967625
 R(3)=  5.1672919  0.0000000  5.1672919  G(3)=  0.0967625 -0.0967625  0.0967625
 Unit cell volume ucvol=  2.7594274E+02 bohr^3
 Angles (23,13,12)=  6.00000000E+01  6.00000000E+01  6.00000000E+01 degrees
 setup1 : take into account q-point for computing boxcut.
 
 getcut: wavevector=  0.0000  0.0000  0.0000  ngfft=  30  30  30
         ecut(hartree)=     16.000   => boxcut(ratio)=   2.28244
 
 getcut : COMMENT -
  Note that boxcut > 2.2 ; recall that boxcut=Gcut(box)/Gcut(sphere) = 2
  is sufficient for exact treatment of convolution.
  Such a large boxcut is a waste : you could raise ecut
  e.g. ecut=   20.838205 Hartrees makes boxcut=2
 
--------------------------------------------------------------------------------
 
-inwffil : will read wavefunctions from disk file ddbo_DS1_WFK
 
 ==>  initialize data related to q vector <== 
 
 The list of irreducible perturbations for this q vector is:
    1)    idir= 1    ipert=   3
    2)    idir= 2    ipert=   3
    3)    idir= 3    ipert=   3
 
================================================================================
 
--------------------------------------------------------------------------------
 Perturbation wavevector (in red.coord.)   0.000000  0.000000  0.000000
 Perturbation : derivative vs k along direction   1
 The set of symmetries contains only one element for this perturbation.
 symkpt : not enough symmetry to change the number of k points.
 
--------------------------------------------------------------------------------
 
-inwffil : will read wavefunctions from disk file ddbo_DS1_WFK
--------------------------------------------------------------------------------
 
 Initialisation of the first-order wave-functions :
  ireadwf=   0
 
     iter   2DEtotal(Ha)        deltaE(Ha) residm    vres2
-ETOT  1  -8.6188239250678     -8.619E+00 8.791E+00 0.000E+00
 ETOT  2  -8.6220118973442     -3.188E-03 2.734E+00 0.000E+00
 ETOT  3  -8.6220192374223     -7.340E-06 2.649E+00 0.000E+00
 ETOT  4  -8.6220192759629     -3.854E-08 1.165E+00 0.000E+00
 ETOT  5  -8.6220192762339     -2.710E-10 1.862E+00 0.000E+00
 ETOT  6  -8.6220192762360     -2.172E-12 7.081E-01 0.000E+00
 ETOT  7  -8.6220192762361     -1.776E-14 1.239E+00 0.000E+00
 ETOT  8  -8.6220192762361     -3.553E-15 5.783E-01 0.000E+00
 ETOT  9  -8.6220192762361     -5.329E-15 9.695E-01 0.000E+00
 ETOT 10  -8.6220192762361      3.553E-15 5.656E-01 0.000E+00
 ETOT 11  -8.6220192762361      0.000E+00 8.168E-01 0.000E+00
 ETOT 12  -8.6220192762361      0.000E+00 5.630E-01 0.000E+00
 ETOT 13  -8.6220192762361      0.000E+00 6.958E-01 0.000E+00
 ETOT 14  -8.6220192762361     -1.776E-15 5.626E-01 0.000E+00
 ETOT 15  -8.6220192762361      1.776E-15 5.939E-01 0.000E+00
 ETOT 16  -8.6220192762361      0.000E+00 5.633E-01 0.000E+00
 ETOT 17  -8.6220192762361      0.000E+00 5.082E-01 0.000E+00
 ETOT 18  -8.6220192762361      0.000E+00 5.646E-01 0.000E+00
 ETOT 19  -8.6220192762361      0.000E+00 4.457E-01 0.000E+00
 ETOT 20  -8.6220192762361      0.000E+00 5.663E-01 0.000E+00
 ETOT 21  -8.6220192762361      0.000E+00 3.911E-01 0.000E+00
 ETOT 22  -8.6220192762361      1.776E-15 5.682E-01 0.000E+00
 ETOT 23  -8.6220192762361     -1.776E-15 3.432E-01 0.000E+00
 ETOT 24  -8.6220192762361      1.776E-15 5.703E-01 0.000E+00
 ETOT 25  -8.6220192762361      0.000E+00 3.163E-01 0.000E+00
 ETOT 26  -8.6220192762361     -1.776E-15 5.723E-01 0.000E+00
 ETOT 27  -8.6220192762361      0.000E+00 3.159E-01 0.000E+00
 ETOT 28  -8.6220192762361      0.000E+00 5.744E-01 0.000E+00
 ETOT 29  -8.6220192762361      1.776E-15 3.157E-01 0.000E+00
 ETOT 30  -8.6220192762361     -1.776E-15 5.765E-01 0.000E+00
 ETOT 31  -8.6220192762361      0.000E+00 3.154E-01 0.000E+00
 ETOT 32  -8.6220192762361      0.000E+00 5.784E-01 0.000E+00
 ETOT 33  -8.6220192762361      0.000E+00 3.152E-01 0.000E+00
 ETOT 34  -8.6220192762361      0.000E+00 5.803E-01 0.000E+00
 ETOT 35  -8.6220192762361      1.776E-15 3.150E-01 0.000E+00
 ETOT 36  -8.6220192762361     -1.776E-15 5.820E-01 0.000E+00
 ETOT 37  -8.6220192762361      0.000E+00 3.149E-01 0.000E+00
 ETOT 38  -8.6220192762361      0.000E+00 5.837E-01 0.000E+00
 ETOT 39  -8.6220192762361      0.000E+00 3.148E-01 0.000E+00
 ETOT 40  -8.6220192762361      0.000E+00 5.852E-01 0.000E+00
 
 scprqt:  WARNING -
  nstep=   40 was not enough SCF cycles to converge;
  maximum residual=  5.852E-01 exceeds tolwfr=  1.000E-20
 
================================================================================
 
 ----iterations are completed or convergence reached----
 
 Mean square residual over all n,k,spin=   30.882E-04; max=  58.521E-02
 dfpt_looppert : ek2=    1.7742507542E+01
          f-sum rule ratio=    1.0184023638E+00
 prteigrs : about to open file ddb_1WF1_EIG
 Expectation of eigenvalue derivatives (hartree) for nkpt= 128  k points:
  (in case of degenerate eigenvalues, averaged derivative)
 kpt#   1, nband=  6, wtk=  0.00781, kpt= -0.1250 -0.2500  0.0000 (reduced coord)
  -0.04118   -0.13632    0.18367    0.27802    0.34496   -0.47498
 prteigrs : prtvol=0 or 1, do not print more k-points.
 
 
 Eight components of 2nd-order total energy (hartree) are
 1,2,3: 0th-order hamiltonian combined with 1st-order wavefunctions
     kin0=   6.25247495E+00 eigvalue=  -6.48045376E-01  local=  -3.67928122E+00
 4,5,6: 1st-order hamiltonian combined with 1st and 0th-order wfs
     kin1=  -1.80690116E+01  Hartree=   0.00000000E+00     xc=   0.00000000E+00
 7,8,9: eventually, occupation + non-local contributions
    edocc=   5.90583314E+00     enl0=   7.91037783E-01   enl1=   8.24973069E-01
 1-9 gives the relaxation energy (to be shifted if some occ is /=2.0)
   erelax=  -8.62201928E+00
  No Ewald or frozen-wf contrib.: the relaxation energy is the total one
 2DEtotal=   -0.8622019276E+01 Ha. Also 2DEtotal=   -0.234617076174E+03 eV
    (  non-var. 2DEtotal :   -8.6220192762E+00 Ha)
 
--------------------------------------------------------------------------------
 Perturbation wavevector (in red.coord.)   0.000000  0.000000  0.000000
 Perturbation : derivative vs k along direction   2
 The set of symmetries contains only one element for this perturbation.
 symkpt : not enough symmetry to change the number of k points.
 
--------------------------------------------------------------------------------
 
-inwffil : will read wavefunctions from disk file ddbo_DS1_WFK
--------------------------------------------------------------------------------
 
 Initialisation of the first-order wave-functions :
  ireadwf=   0
 
     iter   2DEtotal(Ha)        deltaE(Ha) residm    vres2
-ETOT  1  -8.6188239248957     -8.619E+00 8.791E+00 0.000E+00
 ETOT  2  -8.6220118971721     -3.188E-03 2.734E+00 0.000E+00
 ETOT  3  -8.6220192372502     -7.340E-06 2.649E+00 0.000E+00
 ETOT  4  -8.6220192757908     -3.854E-08 1.165E+00 0.000E+00
 ETOT  5  -8.6220192760618     -2.710E-10 1.862E+00 0.000E+00
 ETOT  6  -8.6220192760639     -2.172E-12 7.081E-01 0.000E+00
 ETOT  7  -8.6220192760640     -1.776E-14 1.239E+00 0.000E+00
 ETOT  8  -8.6220192760640     -3.553E-15 5.783E-01 0.000E+00
 ETOT  9  -8.6220192760640      0.000E+00 9.695E-01 0.000E+00
 ETOT 10  -8.6220192760640     -1.776E-15 5.656E-01 0.000E+00
 ETOT 11  -8.6220192760640      3.553E-15 8.168E-01 0.000E+00
 ETOT 12  -8.6220192760640      0.000E+00 5.630E-01 0.000E+00
 ETOT 13  -8.6220192760640      0.000E+00 6.958E-01 0.000E+00
 ETOT 14  -8.6220192760640      0.000E+00 5.626E-01 0.000E+00
 ETOT 15  -8.6220192760640      0.000E+00 5.939E-01 0.000E+00
 ETOT 16  -8.6220192760640      0.000E+00 5.633E-01 0.000E+00
 ETOT 17  -8.6220192760640      0.000E+00 5.082E-01 0.000E+00
 ETOT 18  -8.6220192760640      0.000E+00 5.646E-01 0.000E+00
 ETOT 19  -8.6220192760640      0.000E+00 4.457E-01 0.000E+00
 ETOT 20  -8.6220192760640      1.776E-15 5.663E-01 0.000E+00
 ETOT 21  -8.6220192760640      0.000E+00 3.911E-01 0.000E+00
 ETOT 22  -8.6220192760640      0.000E+00 5.682E-01 0.000E+00
 ETOT 23  -8.6220192760640     -1.776E-15 3.432E-01 0.000E+00
 ETOT 24  -8.6220192760640      1.776E-15 5.703E-01 0.000E+00
 ETOT 25  -8.6220192760640      0.000E+00 3.163E-01 0.000E+00
 ETOT 26  -8.6220192760640      0.000E+00 5.723E-01 0.000E+00
 ETOT 27  -8.6220192760640      0.000E+00 3.159E-01 0.000E+00
 ETOT 28  -8.6220192760640      0.000E+00 5.744E-01 0.000E+00
 ETOT 29  -8.6220192760640      0.000E+00 3.157E-01 0.000E+00
 ETOT 30  -8.6220192760640      0.000E+00 5.765E-01 0.000E+00
 ETOT 31  -8.6220192760640     -1.776E-15 3.154E-01 0.000E+00
 ETOT 32  -8.6220192760640      0.000E+00 5.784E-01 0.000E+00
 ETOT 33  -8.6220192760640      0.000E+00 3.152E-01 0.000E+00
 ETOT 34  -8.6220192760640      0.000E+00 5.803E-01 0.000E+00
 ETOT 35  -8.6220192760640      0.000E+00 3.150E-01 0.000E+00
 ETOT 36  -8.6220192760640      0.000E+00 5.820E-01 0.000E+00
 ETOT 37  -8.6220192760640      0.000E+00 3.149E-01 0.000E+00
 ETOT 38  -8.6220192760640      1.776E-15 5.837E-01 0.000E+00
 ETOT 39  -8.6220192760640      0.000E+00 3.148E-01 0.000E+00
 ETOT 40  -8.6220192760640      0.000E+00 5.852E-01 0.000E+00
 
 scprqt:  WARNING -
  nstep=   40 was not enough SCF cycles to converge;
  maximum residual=  5.852E-01 exceeds tolwfr=  1.000E-20
 
================================================================================
 
 ----iterations are completed or convergence reached----
 
 Mean square residual over all n,k,spin=   30.882E-04; max=  58.521E-02
 dfpt_looppert : ek2=    1.7742507542E+01
          f-sum rule ratio=    1.0184023638E+00
 prteigrs : about to open file ddb_1WF1_EIG
 Expectation of eigenvalue derivatives (hartree) for nkpt= 128  k points:
  (in case of degenerate eigenvalues, averaged derivative)
 kpt#   1, nband=  6, wtk=  0.00781, kpt= -0.1250 -0.2500  0.0000 (reduced coord)
  -0.18969    0.62014    0.11804    0.16790   -0.10394    0.02386
 prteigrs : prtvol=0 or 1, do not print more k-points.
 
 
 Eight components of 2nd-order total energy (hartree) are
 1,2,3: 0th-order hamiltonian combined with 1st-order wavefunctions
     kin0=   6.25247495E+00 eigvalue=  -6.48045376E-01  local=  -3.67928122E+00
 4,5,6: 1st-order hamiltonian combined with 1st and 0th-order wfs
     kin1=  -1.80690116E+01  Hartree=   0.00000000E+00     xc=   0.00000000E+00
 7,8,9: eventually, occupation + non-local contributions
    edocc=   5.90583314E+00     enl0=   7.91037783E-01   enl1=   8.24973068E-01
 1-9 gives the relaxation energy (to be shifted if some occ is /=2.0)
   erelax=  -8.62201928E+00
  No Ewald or frozen-wf contrib.: the relaxation energy is the total one
 2DEtotal=   -0.8622019276E+01 Ha. Also 2DEtotal=   -0.234617076169E+03 eV
    (  non-var. 2DEtotal :   -8.6220192760E+00 Ha)
 
--------------------------------------------------------------------------------
 Perturbation wavevector (in red.coord.)   0.000000  0.000000  0.000000
 Perturbation : derivative vs k along direction   3
 The set of symmetries contains only one element for this perturbation.
 symkpt : not enough symmetry to change the number of k points.
 
--------------------------------------------------------------------------------
 
-inwffil : will read wavefunctions from disk file ddbo_DS1_WFK
--------------------------------------------------------------------------------
 
 Initialisation of the first-order wave-functions :
  ireadwf=   0
 
     iter   2DEtotal(Ha)        deltaE(Ha) residm    vres2
-ETOT  1  -8.6188239247233     -8.619E+00 8.791E+00 0.000E+00
 ETOT  2  -8.6220118969996     -3.188E-03 2.734E+00 0.000E+00
 ETOT  3  -8.6220192370777     -7.340E-06 2.649E+00 0.000E+00
 ETOT  4  -8.6220192756183     -3.854E-08 1.165E+00 0.000E+00
 ETOT  5  -8.6220192758893     -2.710E-10 1.862E+00 0.000E+00
 ETOT  6  -8.6220192758915     -2.178E-12 7.081E-01 0.000E+00
 ETOT  7  -8.6220192758915     -1.599E-14 1.239E+00 0.000E+00
 ETOT  8  -8.6220192758915      3.553E-15 5.783E-01 0.000E+00
 ETOT  9  -8.6220192758915     -1.776E-15 9.695E-01 0.000E+00
 ETOT 10  -8.6220192758915     -3.553E-15 5.656E-01 0.000E+00
 ETOT 11  -8.6220192758915      0.000E+00 8.168E-01 0.000E+00
 ETOT 12  -8.6220192758915      3.553E-15 5.630E-01 0.000E+00
 ETOT 13  -8.6220192758915     -3.553E-15 6.958E-01 0.000E+00
 ETOT 14  -8.6220192758915      7.105E-15 5.626E-01 0.000E+00
 ETOT 15  -8.6220192758915     -3.553E-15 5.939E-01 0.000E+00
 ETOT 16  -8.6220192758915      0.000E+00 5.633E-01 0.000E+00
 ETOT 17  -8.6220192758915      0.000E+00 5.082E-01 0.000E+00
 ETOT 18  -8.6220192758915      0.000E+00 5.646E-01 0.000E+00
 ETOT 19  -8.6220192758915      0.000E+00 4.457E-01 0.000E+00
 ETOT 20  -8.6220192758915      3.553E-15 5.663E-01 0.000E+00
 ETOT 21  -8.6220192758915      0.000E+00 3.911E-01 0.000E+00
 ETOT 22  -8.6220192758915     -1.776E-15 5.682E-01 0.000E+00
 ETOT 23  -8.6220192758915      1.776E-15 3.432E-01 0.000E+00
 ETOT 24  -8.6220192758915     -1.776E-15 5.703E-01 0.000E+00
 ETOT 25  -8.6220192758915     -1.776E-15 3.163E-01 0.000E+00
 ETOT 26  -8.6220192758915      1.776E-15 5.723E-01 0.000E+00
 ETOT 27  -8.6220192758915     -1.776E-15 3.159E-01 0.000E+00
 ETOT 28  -8.6220192758915      0.000E+00 5.744E-01 0.000E+00
 ETOT 29  -8.6220192758915     -3.553E-15 3.157E-01 0.000E+00
 ETOT 30  -8.6220192758915      5.329E-15 5.765E-01 0.000E+00
 ETOT 31  -8.6220192758915     -5.329E-15 3.154E-01 0.000E+00
 ETOT 32  -8.6220192758915      7.105E-15 5.784E-01 0.000E+00
 ETOT 33  -8.6220192758915     -3.553E-15 3.152E-01 0.000E+00
 ETOT 34  -8.6220192758915      3.553E-15 5.803E-01 0.000E+00
 ETOT 35  -8.6220192758915     -5.329E-15 3.150E-01 0.000E+00
 ETOT 36  -8.6220192758915      0.000E+00 5.820E-01 0.000E+00
 ETOT 37  -8.6220192758915      0.000E+00 3.149E-01 0.000E+00
 ETOT 38  -8.6220192758915      0.000E+00 5.837E-01 0.000E+00
 ETOT 39  -8.6220192758915      0.000E+00 3.148E-01 0.000E+00
 ETOT 40  -8.6220192758915     -1.776E-15 5.852E-01 0.000E+00
 
 scprqt:  WARNING -
  nstep=   40 was not enough SCF cycles to converge;
  maximum residual=  5.852E-01 exceeds tolwfr=  1.000E-20
 
================================================================================
 
 ----iterations are completed or convergence reached----
 
 Mean square residual over all n,k,spin=   30.882E-04; max=  58.521E-02
 dfpt_looppert : ek2=    1.7742507542E+01
          f-sum rule ratio=    1.0184023638E+00
 prteigrs : about to open file ddb_1WF1_EIG
 Expectation of eigenvalue derivatives (hartree) for nkpt= 128  k points:
  (in case of degenerate eigenvalues, averaged derivative)
 kpt#   1, nband=  6, wtk=  0.00781, kpt= -0.1250 -0.2500  0.0000 (reduced coord)
   0.11544   -0.24191   -0.15085   -0.22296   -0.12051    0.22540
 prteigrs : prtvol=0 or 1, do not print more k-points.
 
 
 Eight components of 2nd-order total energy (hartree) are
 1,2,3: 0th-order hamiltonian combined with 1st-order wavefunctions
     kin0=   6.25247495E+00 eigvalue=  -6.48045376E-01  local=  -3.67928122E+00
 4,5,6: 1st-order hamiltonian combined with 1st and 0th-order wfs
     kin1=  -1.80690116E+01  Hartree=   0.00000000E+00     xc=   0.00000000E+00
 7,8,9: eventually, occupation + non-local contributions
    edocc=   5.90583314E+00     enl0=   7.91037783E-01   enl1=   8.24973068E-01
 1-9 gives the relaxation energy (to be shifted if some occ is /=2.0)
   erelax=  -8.62201928E+00
  No Ewald or frozen-wf contrib.: the relaxation energy is the total one
 2DEtotal=   -0.8622019276E+01 Ha. Also 2DEtotal=   -0.234617076165E+03 eV
    (  non-var. 2DEtotal :   -8.6220192759E+00 Ha)
================================================================================
 
 ---- first-order wavefunction calculations are completed ----
 
 
 Total localisation tensor (bohr^2) in cartesian coordinates
  WARNING : still subject to testing - especially symmetries.
      direction              matrix element
   alpha     beta       real part   imaginary part
     1        1       4.1006044275    0.0000000000
     1        2       2.0503022138    0.0000000000
     1        3       2.0503022137    0.0000000000
     2        1       2.0503022138    0.0000000000
     2        2       4.1006044275    0.0000000000
     2        3       2.0503022137    0.0000000000
     3        1       2.0503022137    0.0000000000
     3        2       2.0503022137    0.0000000000
     3        3       4.1006044274    0.0000000000
 
 respfn : d/dk was computed, but no 2DTE, so no DDB output.
 
================================================================================
== DATASET  3 ==================================================================
-   nproc =   28
 
 mkfilename : getwfk/=0, take file _WFK from output of DATASET   1.
 
 mkfilename : getddk/=0, take file _1WF from output of DATASET   2.
 
 Exchange-correlation functional for the present dataset will be:
  GGA: Perdew-Burke-Ernzerhof functional - ixc=11
 Citation for XC functional:
  J.P.Perdew, K.Burke, M.Ernzerhof, PRL 77, 3865 (1996)
 
 Real(R)+Recip(G) space primitive vectors, cartesian coordinates (Bohr,Bohr^-1):
 R(1)=  5.1672919  5.1672919  0.0000000  G(1)=  0.0967625  0.0967625 -0.0967625
 R(2)=  0.0000000  5.1672919  5.1672919  G(2)= -0.0967625  0.0967625  0.0967625
 R(3)=  5.1672919  0.0000000  5.1672919  G(3)=  0.0967625 -0.0967625  0.0967625
 Unit cell volume ucvol=  2.7594274E+02 bohr^3
 Angles (23,13,12)=  6.00000000E+01  6.00000000E+01  6.00000000E+01 degrees
 setup1 : take into account q-point for computing boxcut.
 
 getcut: wavevector=  0.0000  0.0000  0.0000  ngfft=  30  30  30
         ecut(hartree)=     16.000   => boxcut(ratio)=   2.28244
 
 getcut : COMMENT -
  Note that boxcut > 2.2 ; recall that boxcut=Gcut(box)/Gcut(sphere) = 2
  is sufficient for exact treatment of convolution.
  Such a large boxcut is a waste : you could raise ecut
  e.g. ecut=   20.838205 Hartrees makes boxcut=2
 
--------------------------------------------------------------------------------
 
-inwffil : will read wavefunctions from disk file ddbo_DS1_WFK
 
 ==>  initialize data related to q vector <== 
 
 The list of irreducible perturbations for this q vector is:
    1)    idir= 1    ipert=   1
    2)    idir= 1    ipert=   4
 
================================================================================
 
 The perturbation idir=   2  ipert=   1 is
 symmetric of a previously calculated perturbation.
 So, its SCF calculation is not needed.
 
 
 The perturbation idir=   3  ipert=   1 is
 symmetric of a previously calculated perturbation.
 So, its SCF calculation is not needed.
 
 
 The perturbation idir=   1  ipert=   2 is
 symmetric of a previously calculated perturbation.
 So, its SCF calculation is not needed.
 
 
 The perturbation idir=   2  ipert=   2 is
 symmetric of a previously calculated perturbation.
 So, its SCF calculation is not needed.
 
 
 The perturbation idir=   3  ipert=   2 is
 symmetric of a previously calculated perturbation.
 So, its SCF calculation is not needed.
 
 
 The perturbation idir=   2  ipert=   4 is
 symmetric of a previously calculated perturbation.
 So, its SCF calculation is not needed.
 
 
 The perturbation idir=   3  ipert=   4 is
 symmetric of a previously calculated perturbation.
 So, its SCF calculation is not needed.
 
 
--------------------------------------------------------------------------------
 Perturbation wavevector (in red.coord.)   0.000000  0.000000  0.000000
 Perturbation : displacement of atom   1   along direction   1
 Found     2 symmetries that leave the perturbation invariant.
 symkpt : the number of k-points, thanks to the symmetries,
 is reduced to    72 .
 
--------------------------------------------------------------------------------
 
-inwffil : will read wavefunctions from disk file ddbo_DS1_WFK
--------------------------------------------------------------------------------
 
 Initialisation of the first-order wave-functions :
  ireadwf=   0
 
     iter   2DEtotal(Ha)        deltaE(Ha) residm    vres2
-ETOT  1   7.2944740280299     -7.527E+01 3.323E+01 1.592E+02
 ETOT  2   7.1919245528301     -1.025E-01 2.128E+00 3.224E+00
 ETOT  3   7.1909054647541     -1.019E-03 1.732E+01 1.006E-01
 ETOT  4   7.1908786164509     -2.685E-05 2.596E+00 3.650E-03
 ETOT  5   7.1908778311439     -7.853E-07 1.883E+01 6.225E-05
 ETOT  6   7.1908778135698     -1.757E-08 2.644E+00 3.715E-06
 ETOT  7   7.1908778120473     -1.522E-09 1.895E+01 1.777E-07
 ETOT  8   7.1908778119829     -6.445E-11 2.621E+00 3.846E-09
 
 At SCF step    8       vres2   =  3.85E-09 < tolvrs=  1.00E-08 =>converged.
-open ddk wf file :ddbo_DS2_1WF7
-open ddk wf file :ddbo_DS2_1WF8
-open ddk wf file :ddbo_DS2_1WF9
================================================================================
 
 ----iterations are completed or convergence reached----
 
 Mean square residual over all n,k,spin=   18.466E-03; max=  26.206E-01
 
 Thirteen components of 2nd-order total energy (hartree) are
 1,2,3: 0th-order hamiltonian combined with 1st-order wavefunctions
     kin0=   7.10680249E+01 eigvalue=  -5.03331321E-01  local=  -4.12985356E+01
 4,5,6: 1st-order hamiltonian combined with 1st and 0th-order wfs
 loc psp =  -3.87636435E+01  Hartree=   1.43049214E+01     xc=  -6.63126560E+00
 note that "loc psp" includes a xc core correction that could be resolved
 7,8,9: eventually, occupation + non-local contributions
    edocc=   3.58441685E+00     enl0=   3.48467464E+01   enl1=  -1.11978309E+02
 1-9 gives the relaxation energy (to be shifted if some occ is /=2.0)
   erelax=  -7.53709752E+01
 10,11,12 Non-relaxation  contributions : frozen-wavefunctions and Ewald
 fr.local=   1.12136334E+01 fr.nonlo=   6.08535708E+01  Ewald=   1.29701680E+01
 13,14 Frozen wf xc core corrections (1) and (2)
 frxc 1  =  -7.98974399E+00  frxc 2 =   5.51422484E+00
 Resulting in :
 2DEtotal=    0.7190877812E+01 Ha. Also 2DEtotal=    0.195673736432E+03 eV
    (2DErelax=   -7.5370975233E+01 Ha. 2DEnonrelax=    8.2561853045E+01 Ha)
    (  non-var. 2DEtotal :    7.1908769532E+00 Ha)
 
 
--------------------------------------------------------------------------------
 Perturbation wavevector (in red.coord.)   0.000000  0.000000  0.000000
 Perturbation : homogeneous electric field along direction   1
 The set of symmetries contains only one element for this perturbation.
 symkpt : not enough symmetry to change the number of k points.
 
--------------------------------------------------------------------------------
 
-inwffil : will read wavefunctions from disk file ddbo_DS1_WFK
--------------------------------------------------------------------------------
 
 Initialisation of the first-order wave-functions :
  ireadwf=   0
-dfpt_looppert : read the wavefunctions from file: ddbo_DS2_1WF7
 
     iter   2DEtotal(Ha)        deltaE(Ha) residm    vres2
-ETOT  1  -307.24772463503     -3.072E+02 4.993E+08 1.344E+04
 ETOT  2  -315.53844641722     -8.291E+00 6.147E+06 1.671E+02
 ETOT  3  -315.62161650407     -8.317E-02 6.375E+06 3.742E+00
 ETOT  4  -315.62209524269     -4.787E-04 5.069E+08 1.434E-01
 ETOT  5  -315.62212812617     -3.288E-05 6.170E+06 1.792E-03
 ETOT  6  -315.62212870660     -5.804E-07 3.208E+08 1.849E-05
 ETOT  7  -315.62212871673     -1.013E-08 5.069E+08 6.917E-07
 ETOT  8  -315.62212871711     -3.740E-10 6.170E+06 4.774E-09
 
 At SCF step    8       vres2   =  4.77E-09 < tolvrs=  1.00E-08 =>converged.
-open ddk wf file :ddbo_DS2_1WF7
-open ddk wf file :ddbo_DS2_1WF8
-open ddk wf file :ddbo_DS2_1WF9
================================================================================
 
 ----iterations are completed or convergence reached----
 
 Mean square residual over all n,k,spin=   28.886E+03; max=  61.698E+05
 
 Seven components of 2nd-order total energy (hartree) are
 1,2,3: 0th-order hamiltonian combined with 1st-order wavefunctions
     kin0=   1.00949759E+02 eigvalue=  -1.68744354E+01  local=  -6.90040974E+01
 4,5,6: 1st-order hamiltonian combined with 1st and 0th-order wfs
    dotwf=  -6.31244250E+02  Hartree=   3.56698378E+01     xc=  -2.58476099E+01
 7,8,9: eventually, occupation + non-local contributions
    edocc=   2.78178178E+02     enl0=   1.25504895E+01   enl1=   0.00000000E+00
 1-9 gives the relaxation energy (to be shifted if some occ is /=2.0)
   erelax=  -3.15622129E+02
  No Ewald or frozen-wf contrib.: the relaxation energy is the total one
 2DEtotal=   -0.3156221287E+03 Ha. Also 2DEtotal=   -0.858851489923E+04 eV
    (  non-var. 2DEtotal :   -3.1562212516E+02 Ha)
================================================================================
 
 ---- first-order wavefunction calculations are completed ----
 
 
 ==> Compute Derivative Database <==
  
  2nd-order matrix (non-cartesian coordinates, masses not included,
   asr not included )
     j1       j2             matrix element
  dir pert dir pert     real part     imaginary part
  
   1    1   1    1         7.1910194728         0.0000000000
   1    1   2    1         3.5955097364         0.0000000000
   1    1   3    1         3.5955097364         0.0000000000
   1    1   1    2        -7.1908803483        -0.0000000000
   1    1   2    2        -3.5954401741        -0.0000000000
   1    1   3    2        -3.5954401741         0.0000000000
   1    1   1    4       -25.5946077624         0.0000000000
   1    1   2    4        -0.0000000000         0.0000000000
   1    1   3    4        -0.0000000000         0.0000000000
  
   2    1   1    1         3.5955097364         0.0000000000
   2    1   2    1         7.1910194728         0.0000000000
   2    1   3    1         3.5955097364         0.0000000000
   2    1   1    2        -3.5954401741        -0.0000000000
   2    1   2    2        -7.1908803483         0.0000000000
   2    1   3    2        -3.5954401741         0.0000000000
   2    1   1    4        -0.0000000000         0.0000000000
   2    1   2    4       -25.5946077624         0.0000000000
   2    1   3    4        -0.0000000000         0.0000000000
  
   3    1   1    1         3.5955097364         0.0000000000
   3    1   2    1         3.5955097364         0.0000000000
   3    1   3    1         7.1910194728         0.0000000000
   3    1   1    2        -3.5954401741         0.0000000000
   3    1   2    2        -3.5954401741         0.0000000000
   3    1   3    2        -7.1908803483        -0.0000000000
   3    1   1    4         0.0000000000         0.0000000000
   3    1   2    4         0.0000000000         0.0000000000
   3    1   3    4       -25.5946077624         0.0000000000
  
   1    2   1    1        -7.1908803483         0.0000000000
   1    2   2    1        -3.5954401741         0.0000000000
   1    2   3    1        -3.5954401741        -0.0000000000
   1    2   1    2         7.1910194728         0.0000000000
   1    2   2    2         3.5955097364         0.0000000000
   1    2   3    2         3.5955097364         0.0000000000
   1    2   1    4       -25.5946077624         0.0000000000
   1    2   2    4        -0.0000000000         0.0000000000
   1    2   3    4        -0.0000000000         0.0000000000
  
   2    2   1    1        -3.5954401741         0.0000000000
   2    2   2    1        -7.1908803483        -0.0000000000
   2    2   3    1        -3.5954401741        -0.0000000000
   2    2   1    2         3.5955097364         0.0000000000
   2    2   2    2         7.1910194728         0.0000000000
   2    2   3    2         3.5955097364         0.0000000000
   2    2   1    4        -0.0000000000         0.0000000000
   2    2   2    4       -25.5946077624         0.0000000000
   2    2   3    4        -0.0000000000         0.0000000000
  
   3    2   1    1        -3.5954401741        -0.0000000000
   3    2   2    1        -3.5954401741        -0.0000000000
   3    2   3    1        -7.1908803483         0.0000000000
   3    2   1    2         3.5955097364         0.0000000000
   3    2   2    2         3.5955097364         0.0000000000
   3    2   3    2         7.1910194728         0.0000000000
   3    2   1    4         0.0000000000         0.0000000000
   3    2   2    4         0.0000000000         0.0000000000
   3    2   3    4       -25.5946077624         0.0000000000
  
   1    4   1    1       -25.5944897432         0.0000000000
   1    4   2    1         0.0000000000         0.0000000000
   1    4   3    1         0.0000000000         0.0000000000
   1    4   1    2       -25.5944897432         0.0000000000
   1    4   2    2         0.0000000000         0.0000000000
   1    4   3    2         0.0000000000         0.0000000000
   1    4   1    4      -315.6221251561         0.0000000000
   1    4   2    4       105.2073750520         0.0000000000
   1    4   3    4       105.2073750520         0.0000000000
  
   2    4   1    1        -0.0000000000         0.0000000000
   2    4   2    1       -25.5944897432         0.0000000000
   2    4   3    1         0.0000000000         0.0000000000
   2    4   1    2        -0.0000000000         0.0000000000
   2    4   2    2       -25.5944897432         0.0000000000
   2    4   3    2         0.0000000000         0.0000000000
   2    4   1    4       105.2073750520         0.0000000000
   2    4   2    4      -315.6221251561         0.0000000000
   2    4   3    4       105.2073750520         0.0000000000
  
   3    4   1    1         0.0000000000         0.0000000000
   3    4   2    1         0.0000000000         0.0000000000
   3    4   3    1       -25.5944897432         0.0000000000
   3    4   1    2         0.0000000000         0.0000000000
   3    4   2    2         0.0000000000         0.0000000000
   3    4   3    2       -25.5944897432         0.0000000000
   3    4   1    4       105.2073750520         0.0000000000
   3    4   2    4       105.2073750520         0.0000000000
   3    4   3    4      -315.6221251561         0.0000000000
  
  
  Dynamical matrix, in cartesian coordinates,
   if specified in the inputs, asr has been imposed
     j1       j2             matrix element
  dir pert dir pert     real part    imaginary part
  
   1    1   1    1         0.1346587209         0.0000000000
   1    1   2    1        -0.0000000000         0.0000000000
   1    1   3    1        -0.0000000000         0.0000000000
   1    1   1    2        -0.1346561157        -0.0000000000
   1    1   2    2        -0.0000000000         0.0000000000
   1    1   3    2         0.0000000000        -0.0000000000
  
   2    1   1    1        -0.0000000000         0.0000000000
   2    1   2    1         0.1346587209         0.0000000000
   2    1   3    1         0.0000000000         0.0000000000
   2    1   1    2        -0.0000000000         0.0000000000
   2    1   2    2        -0.1346561157        -0.0000000000
   2    1   3    2        -0.0000000000         0.0000000000
  
   3    1   1    1        -0.0000000000         0.0000000000
   3    1   2    1        -0.0000000000         0.0000000000
   3    1   3    1         0.1346587209         0.0000000000
   3    1   1    2         0.0000000000        -0.0000000000
   3    1   2    2        -0.0000000000         0.0000000000
   3    1   3    2        -0.1346561157        -0.0000000000
  
   1    2   1    1        -0.1346561157         0.0000000000
   1    2   2    1        -0.0000000000        -0.0000000000
   1    2   3    1         0.0000000000         0.0000000000
   1    2   1    2         0.1346587209         0.0000000000
   1    2   2    2        -0.0000000000         0.0000000000
   1    2   3    2        -0.0000000000         0.0000000000
  
   2    2   1    1        -0.0000000000        -0.0000000000
   2    2   2    1        -0.1346561157         0.0000000000
   2    2   3    1        -0.0000000000        -0.0000000000
   2    2   1    2        -0.0000000000         0.0000000000
   2    2   2    2         0.1346587209         0.0000000000
   2    2   3    2         0.0000000000         0.0000000000
  
   3    2   1    1         0.0000000000         0.0000000000
   3    2   2    1        -0.0000000000        -0.0000000000
   3    2   3    1        -0.1346561157         0.0000000000
   3    2   1    2        -0.0000000000         0.0000000000
   3    2   2    2        -0.0000000000         0.0000000000
   3    2   3    2         0.1346587209         0.0000000000
  
  Dielectric tensor, in cartesian coordinates,
     j1       j2             matrix element
  dir pert dir pert     real part    imaginary part
  
   1    4   1    4        13.9617403032         0.0000000000
   1    4   2    4         0.0000000000         0.0000000000
   1    4   3    4        -0.0000000000         0.0000000000
  
   2    4   1    4         0.0000000000         0.0000000000
   2    4   2    4        13.9617403032         0.0000000000
   2    4   3    4        -0.0000000000         0.0000000000
  
   3    4   1    4        -0.0000000000         0.0000000000
   3    4   2    4        -0.0000000000         0.0000000000
   3    4   3    4        13.9617403032         0.0000000000
  
  Effective charges, in cartesian coordinates,
  (from electric field response) 
   if specified in the inputs, asr has been imposed
     j1       j2             matrix element
  dir pert dir pert     real part    imaginary part
  
   1    1   1    4        -0.0735083419         0.0000000000
   2    1   1    4         0.0000000000         0.0000000000
   3    1   1    4        -0.0000000000         0.0000000000
   1    2   1    4        -0.0735083419         0.0000000000
   2    2   1    4         0.0000000000         0.0000000000
   3    2   1    4        -0.0000000000         0.0000000000
  
   1    1   2    4         0.0000000000         0.0000000000
   2    1   2    4        -0.0735083419         0.0000000000
   3    1   2    4        -0.0000000000         0.0000000000
   1    2   2    4         0.0000000000         0.0000000000
   2    2   2    4        -0.0735083419         0.0000000000
   3    2   2    4        -0.0000000000         0.0000000000
  
   1    1   3    4        -0.0000000000         0.0000000000
   2    1   3    4         0.0000000000         0.0000000000
   3    1   3    4        -0.0735083419         0.0000000000
   1    2   3    4        -0.0000000000         0.0000000000
   2    2   3    4         0.0000000000         0.0000000000
   3    2   3    4        -0.0735083419         0.0000000000
  
  Effective charges, in cartesian coordinates,
  (from phonon response) 
   if specified in the inputs, asr has been imposed
     j1       j2             matrix element
  dir pert dir pert     real part    imaginary part
  
   1    4   1    1        -0.0734895585         0.0000000000
   2    4   1    1        -0.0000000000         0.0000000000
   3    4   1    1        -0.0000000000         0.0000000000
  
   1    4   2    1         0.0000000000         0.0000000000
   2    4   2    1        -0.0734895585         0.0000000000
   3    4   2    1         0.0000000000         0.0000000000
  
   1    4   3    1        -0.0000000000         0.0000000000
   2    4   3    1         0.0000000000         0.0000000000
   3    4   3    1        -0.0734895585         0.0000000000
  
   1    4   1    2        -0.0734895585         0.0000000000
   2    4   1    2         0.0000000000         0.0000000000
   3    4   1    2        -0.0000000000         0.0000000000
  
   1    4   2    2         0.0000000000         0.0000000000
   2    4   2    2        -0.0734895585         0.0000000000
   3    4   2    2         0.0000000000         0.0000000000
  
   1    4   3    2        -0.0000000000         0.0000000000
   2    4   3    2         0.0000000000         0.0000000000
   3    4   3    2        -0.0734895585         0.0000000000
  
  
  
 
  Phonon wavevector (reduced coordinates) :  0.00000  0.00000  0.00000
 Phonon energies in Hartree :
   7.133499E-06  7.133500E-06  7.133500E-06  2.293554E-03  2.293554E-03
   2.293554E-03
 Phonon frequencies in cm-1    :
-  1.565622E+00  1.565622E+00  1.565622E+00  5.033770E+02  5.033770E+02
-  5.033770E+02
 
  Phonon at Gamma, with non-analyticity in the
  direction (cartesian coordinates)  1.00000  0.00000  0.00000
 Phonon energies in Hartree :
   7.133499E-06  7.133500E-06  2.719191E-05  2.293554E-03  2.293554E-03
   2.293554E-03
 Phonon frequencies in cm-1    :
-  1.565622E+00  1.565622E+00  5.967935E+00  5.033770E+02  5.033770E+02
-  5.033770E+02
 
  Phonon at Gamma, with non-analyticity in the
  direction (cartesian coordinates)  0.00000  1.00000  0.00000
 Phonon energies in Hartree :
   7.133499E-06  7.133500E-06  2.719191E-05  2.293554E-03  2.293554E-03
   2.293554E-03
 Phonon frequencies in cm-1    :
-  1.565622E+00  1.565622E+00  5.967935E+00  5.033770E+02  5.033770E+02
-  5.033770E+02
 
  Phonon at Gamma, with non-analyticity in the
  direction (cartesian coordinates)  0.00000  0.00000  1.00000
 Phonon energies in Hartree :
   7.133500E-06  7.133500E-06  2.719191E-05  2.293554E-03  2.293554E-03
   2.293554E-03
 Phonon frequencies in cm-1    :
-  1.565622E+00  1.565622E+00  5.967935E+00  5.033770E+02  5.033770E+02
-  5.033770E+02
 
== END DATASET(S) ==============================================================
================================================================================
  
 -outvars: echo values of variables after computation  --------
            acell      7.3076537532E+00  7.3076537532E+00  7.3076537532E+00 Bohr
              amu      2.80855000E+01
           diemac      1.20000000E+01
             ecut      1.60000000E+01 Hartree
           etotal1    -8.4624447281E+00
           etotal2    -8.6220192759E+00
           etotal3    -3.1562212872E+02
            fcart1     6.1065713076E-31 -6.1065713076E-31 -2.0355237692E-31
                      -6.1065713076E-31  6.1065713076E-31  2.0355237692E-31
            fcart3     0.0000000000E+00  0.0000000000E+00  0.0000000000E+00
                       0.0000000000E+00  0.0000000000E+00  0.0000000000E+00
-          fftalg         312
           getddk1          0
           getddk2          0
           getddk3         -1
           getwfk1          0
           getwfk2          1
           getwfk3          1
             iscf1          7
             iscf2         -3
             iscf3          7
              ixc          11
           jdtset        1    2    3
              kpt1    -1.25000000E-01 -2.50000000E-01  0.00000000E+00
                      -1.25000000E-01  5.00000000E-01  0.00000000E+00
                      -2.50000000E-01 -3.75000000E-01  0.00000000E+00
                      -1.25000000E-01 -3.75000000E-01  1.25000000E-01
                      -1.25000000E-01  2.50000000E-01  0.00000000E+00
                      -2.50000000E-01  3.75000000E-01  0.00000000E+00
                      -3.75000000E-01  5.00000000E-01  0.00000000E+00
                      -2.50000000E-01  5.00000000E-01  1.25000000E-01
                      -1.25000000E-01  0.00000000E+00  0.00000000E+00
                      -3.75000000E-01  0.00000000E+00  0.00000000E+00
              kpt2    -1.25000000E-01 -2.50000000E-01  0.00000000E+00
                      -2.50000000E-01 -1.25000000E-01  0.00000000E+00
                      -1.25000000E-01 -1.25000000E-01  1.25000000E-01
                      -1.25000000E-01  5.00000000E-01  0.00000000E+00
                      -2.50000000E-01 -3.75000000E-01  0.00000000E+00
                      -1.25000000E-01 -3.75000000E-01  1.25000000E-01
                      -3.75000000E-01 -2.50000000E-01  0.00000000E+00
                      -2.50000000E-01 -2.50000000E-01  1.25000000E-01
                      -1.25000000E-01 -2.50000000E-01  2.50000000E-01
                       5.00000000E-01 -1.25000000E-01  0.00000000E+00
                      -3.75000000E-01 -1.25000000E-01  1.25000000E-01
                      -2.50000000E-01 -1.25000000E-01  2.50000000E-01
                      -1.25000000E-01 -1.25000000E-01  3.75000000E-01
                      -1.25000000E-01  2.50000000E-01  0.00000000E+00
                      -2.50000000E-01  3.75000000E-01  0.00000000E+00
                      -1.25000000E-01  3.75000000E-01  1.25000000E-01
                      -3.75000000E-01  5.00000000E-01  0.00000000E+00
                      -2.50000000E-01  5.00000000E-01  1.25000000E-01
                      -1.25000000E-01  5.00000000E-01  2.50000000E-01
                       5.00000000E-01 -3.75000000E-01  0.00000000E+00
                      -3.75000000E-01 -3.75000000E-01  1.25000000E-01
                      -2.50000000E-01 -3.75000000E-01  2.50000000E-01
                      -1.25000000E-01 -3.75000000E-01  3.75000000E-01
                       3.75000000E-01 -2.50000000E-01  0.00000000E+00
                       5.00000000E-01 -2.50000000E-01  1.25000000E-01
                      -3.75000000E-01 -2.50000000E-01  2.50000000E-01
                      -2.50000000E-01 -2.50000000E-01  3.75000000E-01
                      -1.25000000E-01 -2.50000000E-01  5.00000000E-01
                       2.50000000E-01 -1.25000000E-01  0.00000000E+00
                       3.75000000E-01 -1.25000000E-01  1.25000000E-01
                       5.00000000E-01 -1.25000000E-01  2.50000000E-01
                      -3.75000000E-01 -1.25000000E-01  3.75000000E-01
                      -2.50000000E-01 -1.25000000E-01  5.00000000E-01
                      -1.25000000E-01 -1.25000000E-01 -3.75000000E-01
                      -1.25000000E-01  0.00000000E+00  0.00000000E+00
                      -1.25000000E-01  1.25000000E-01  1.25000000E-01
                      -2.50000000E-01  2.50000000E-01  1.25000000E-01
                      -1.25000000E-01  2.50000000E-01  2.50000000E-01
                      -3.75000000E-01  3.75000000E-01  1.25000000E-01
                      -2.50000000E-01  3.75000000E-01  2.50000000E-01
                      -1.25000000E-01  3.75000000E-01  3.75000000E-01
                       5.00000000E-01  5.00000000E-01  1.25000000E-01
                      -3.75000000E-01  5.00000000E-01  2.50000000E-01
                      -2.50000000E-01  5.00000000E-01  3.75000000E-01
                      -1.25000000E-01  5.00000000E-01  5.00000000E-01
                       3.75000000E-01 -3.75000000E-01  1.25000000E-01
                       5.00000000E-01 -3.75000000E-01  2.50000000E-01
                      -3.75000000E-01 -3.75000000E-01  3.75000000E-01
                      -2.50000000E-01 -3.75000000E-01  5.00000000E-01
                      -1.25000000E-01 -3.75000000E-01 -3.75000000E-01
              kpt3    -1.25000000E-01 -2.50000000E-01  0.00000000E+00
                      -2.50000000E-01 -1.25000000E-01  0.00000000E+00
                      -1.25000000E-01 -1.25000000E-01  1.25000000E-01
                      -1.25000000E-01  5.00000000E-01  0.00000000E+00
                      -2.50000000E-01 -3.75000000E-01  0.00000000E+00
                      -1.25000000E-01 -3.75000000E-01  1.25000000E-01
                      -3.75000000E-01 -2.50000000E-01  0.00000000E+00
                      -2.50000000E-01 -2.50000000E-01  1.25000000E-01
                      -1.25000000E-01 -2.50000000E-01  2.50000000E-01
                       5.00000000E-01 -1.25000000E-01  0.00000000E+00
                      -3.75000000E-01 -1.25000000E-01  1.25000000E-01
                      -2.50000000E-01 -1.25000000E-01  2.50000000E-01
                      -1.25000000E-01 -1.25000000E-01  3.75000000E-01
                      -1.25000000E-01  2.50000000E-01  0.00000000E+00
                      -2.50000000E-01  3.75000000E-01  0.00000000E+00
                      -1.25000000E-01  3.75000000E-01  1.25000000E-01
                      -3.75000000E-01  5.00000000E-01  0.00000000E+00
                      -2.50000000E-01  5.00000000E-01  1.25000000E-01
                      -1.25000000E-01  5.00000000E-01  2.50000000E-01
                       5.00000000E-01 -3.75000000E-01  0.00000000E+00
                      -3.75000000E-01 -3.75000000E-01  1.25000000E-01
                      -2.50000000E-01 -3.75000000E-01  2.50000000E-01
                      -1.25000000E-01 -3.75000000E-01  3.75000000E-01
                       3.75000000E-01 -2.50000000E-01  0.00000000E+00
                       5.00000000E-01 -2.50000000E-01  1.25000000E-01
                      -3.75000000E-01 -2.50000000E-01  2.50000000E-01
                      -2.50000000E-01 -2.50000000E-01  3.75000000E-01
                      -1.25000000E-01 -2.50000000E-01  5.00000000E-01
                       2.50000000E-01 -1.25000000E-01  0.00000000E+00
                       3.75000000E-01 -1.25000000E-01  1.25000000E-01
                       5.00000000E-01 -1.25000000E-01  2.50000000E-01
                      -3.75000000E-01 -1.25000000E-01  3.75000000E-01
                      -2.50000000E-01 -1.25000000E-01  5.00000000E-01
                      -1.25000000E-01 -1.25000000E-01 -3.75000000E-01
                      -1.25000000E-01  0.00000000E+00  0.00000000E+00
                      -1.25000000E-01  1.25000000E-01  1.25000000E-01
                      -2.50000000E-01  2.50000000E-01  1.25000000E-01
                      -1.25000000E-01  2.50000000E-01  2.50000000E-01
                      -3.75000000E-01  3.75000000E-01  1.25000000E-01
                      -2.50000000E-01  3.75000000E-01  2.50000000E-01
                      -1.25000000E-01  3.75000000E-01  3.75000000E-01
                       5.00000000E-01  5.00000000E-01  1.25000000E-01
                      -3.75000000E-01  5.00000000E-01  2.50000000E-01
                      -2.50000000E-01  5.00000000E-01  3.75000000E-01
                      -1.25000000E-01  5.00000000E-01  5.00000000E-01
                       3.75000000E-01 -3.75000000E-01  1.25000000E-01
                       5.00000000E-01 -3.75000000E-01  2.50000000E-01
                      -3.75000000E-01 -3.75000000E-01  3.75000000E-01
                      -2.50000000E-01 -3.75000000E-01  5.00000000E-01
                      -1.25000000E-01 -3.75000000E-01 -3.75000000E-01
                       outvar_i_n : Printing only first  50 k-points.
           kptopt1          1
           kptopt2          2
           kptopt3          2
         kptrlatt        4   -4    4     -4    4    4     -4   -4    4
          kptrlen      4.13383349E+01
P           mkmem1          1
P           mkmem2          5
P           mkmem3          5
P          mkqmem1          1
P          mkqmem2          5
P          mkqmem3          5
P          mk1mem1          1
P          mk1mem2          5
P          mk1mem3          5
            natom           2
            nband1          6
            nband2          6
            nband3          6
           ndtset           3
            ngfft          30      30      30
             nkpt1         10
             nkpt2        128
             nkpt3        128
             nqpt1          0
             nqpt2          1
             nqpt3          1
            nstep          40
             nsym          48
           ntypat           1
              occ1     2.000000  2.000000  2.000000  2.000000  0.000000  0.000000
              occ2     2.000000  2.000000  2.000000  2.000000  0.000000  0.000000
              occ3     2.000000  2.000000  2.000000  2.000000  0.000000  0.000000
        optdriver1          0
        optdriver2          1
        optdriver3          1
          rfatpol           1       2
            rfdir           1       1       1
           rfelfd1          0
           rfelfd2          2
           rfelfd3          3
           rfphon1          0
           rfphon2          0
           rfphon3          1
            rprim      7.0710682721E-01  7.0710682721E-01  0.0000000000E+00
                       0.0000000000E+00  7.0710682721E-01  7.0710682721E-01
                       7.0710682721E-01  0.0000000000E+00  7.0710682721E-01
           shiftk      5.00000000E-01  5.00000000E-01  5.00000000E-01
          spgroup         227
           strten1     1.3494892345E-06  1.3494892345E-06  1.3494892345E-06
                       0.0000000000E+00  0.0000000000E+00  0.0000000000E+00
           strten3     0.0000000000E+00  0.0000000000E+00  0.0000000000E+00
                       0.0000000000E+00  0.0000000000E+00  0.0000000000E+00
           symrel      1  0  0   0  1  0   0  0  1      -1  0  0   0 -1  0   0  0 -1
                       0 -1  1   0 -1  0   1 -1  0       0  1 -1   0  1  0  -1  1  0
                      -1  0  0  -1  0  1  -1  1  0       1  0  0   1  0 -1   1 -1  0
                       0  1 -1   1  0 -1   0  0 -1       0 -1  1  -1  0  1   0  0  1
                      -1  0  0  -1  1  0  -1  0  1       1  0  0   1 -1  0   1  0 -1
                       0 -1  1   1 -1  0   0 -1  0       0  1 -1  -1  1  0   0  1  0
                       1  0  0   0  0  1   0  1  0      -1  0  0   0  0 -1   0 -1  0
                       0  1 -1   0  0 -1   1  0 -1       0 -1  1   0  0  1  -1  0  1
                      -1  0  1  -1  1  0  -1  0  0       1  0 -1   1 -1  0   1  0  0
                       0 -1  0   1 -1  0   0 -1  1       0  1  0  -1  1  0   0  1 -1
                       1  0 -1   0  0 -1   0  1 -1      -1  0  1   0  0  1   0 -1  1
                       0  1  0   0  0  1   1  0  0       0 -1  0   0  0 -1  -1  0  0
                       1  0 -1   0  1 -1   0  0 -1      -1  0  1   0 -1  1   0  0  1
                       0 -1  0   0 -1  1   1 -1  0       0  1  0   0  1 -1  -1  1  0
                      -1  0  1  -1  0  0  -1  1  0       1  0 -1   1  0  0   1 -1  0
                       0  1  0   1  0  0   0  0  1       0 -1  0  -1  0  0   0  0 -1
                       0  0 -1   0  1 -1   1  0 -1       0  0  1   0 -1  1  -1  0  1
                       1 -1  0   0 -1  1   0 -1  0      -1  1  0   0  1 -1   0  1  0
                       0  0  1   1  0  0   0  1  0       0  0 -1  -1  0  0   0 -1  0
                      -1  1  0  -1  0  0  -1  0  1       1 -1  0   1  0  0   1  0 -1
                       0  0  1   0  1  0   1  0  0       0  0 -1   0 -1  0  -1  0  0
                       1 -1  0   0 -1  0   0 -1  1      -1  1  0   0  1  0   0  1 -1
                       0  0 -1   1  0 -1   0  1 -1       0  0  1  -1  0  1   0 -1  1
                      -1  1  0  -1  0  1  -1  0  0       1 -1  0   1  0 -1   1  0  0
            tnons      0.0000000  0.0000000  0.0000000     0.2500000  0.2500000  0.2500000
                       0.0000000  0.0000000  0.0000000     0.2500000  0.2500000  0.2500000
                       0.0000000  0.0000000  0.0000000     0.2500000  0.2500000  0.2500000
                       0.0000000  0.0000000  0.0000000     0.2500000  0.2500000  0.2500000
                       0.0000000  0.0000000  0.0000000     0.2500000  0.2500000  0.2500000
                       0.0000000  0.0000000  0.0000000     0.2500000  0.2500000  0.2500000
                       0.0000000  0.0000000  0.0000000     0.2500000  0.2500000  0.2500000
                       0.0000000  0.0000000  0.0000000     0.2500000  0.2500000  0.2500000
                       0.0000000  0.0000000  0.0000000     0.2500000  0.2500000  0.2500000
                       0.0000000  0.0000000  0.0000000     0.2500000  0.2500000  0.2500000
                       0.0000000  0.0000000  0.0000000     0.2500000  0.2500000  0.2500000
                       0.0000000  0.0000000  0.0000000     0.2500000  0.2500000  0.2500000
                       0.0000000  0.0000000  0.0000000     0.2500000  0.2500000  0.2500000
                       0.0000000  0.0000000  0.0000000     0.2500000  0.2500000  0.2500000
                       0.0000000  0.0000000  0.0000000     0.2500000  0.2500000  0.2500000
                       0.0000000  0.0000000  0.0000000     0.2500000  0.2500000  0.2500000
                       0.0000000  0.0000000  0.0000000     0.2500000  0.2500000  0.2500000
                       0.0000000  0.0000000  0.0000000     0.2500000  0.2500000  0.2500000
                       0.0000000  0.0000000  0.0000000     0.2500000  0.2500000  0.2500000
                       0.0000000  0.0000000  0.0000000     0.2500000  0.2500000  0.2500000
                       0.0000000  0.0000000  0.0000000     0.2500000  0.2500000  0.2500000
                       0.0000000  0.0000000  0.0000000     0.2500000  0.2500000  0.2500000
                       0.0000000  0.0000000  0.0000000     0.2500000  0.2500000  0.2500000
                       0.0000000  0.0000000  0.0000000     0.2500000  0.2500000  0.2500000
           tolvrs1     1.00000000E-10
           tolvrs2     0.00000000E+00
           tolvrs3     1.00000000E-08
           tolwfr1     0.00000000E+00
           tolwfr2     1.00000000E-20
           tolwfr3     0.00000000E+00
            typat      1  1
              wtk1       0.09375    0.09375    0.09375    0.18750    0.09375    0.09375
                         0.09375    0.18750    0.03125    0.03125
              wtk2       0.00781    0.00781    0.00781    0.00781    0.00781    0.00781
                         0.00781    0.00781    0.00781    0.00781    0.00781    0.00781
                         0.00781    0.00781    0.00781    0.00781    0.00781    0.00781
                         0.00781    0.00781    0.00781    0.00781    0.00781    0.00781
                         0.00781    0.00781    0.00781    0.00781    0.00781    0.00781
                         0.00781    0.00781    0.00781    0.00781    0.00781    0.00781
                         0.00781    0.00781    0.00781    0.00781    0.00781    0.00781
                         0.00781    0.00781    0.00781    0.00781    0.00781    0.00781
                         0.00781    0.00781
              wtk3       0.00781    0.00781    0.00781    0.00781    0.00781    0.00781
                         0.00781    0.00781    0.00781    0.00781    0.00781    0.00781
                         0.00781    0.00781    0.00781    0.00781    0.00781    0.00781
                         0.00781    0.00781    0.00781    0.00781    0.00781    0.00781
                         0.00781    0.00781    0.00781    0.00781    0.00781    0.00781
                         0.00781    0.00781    0.00781    0.00781    0.00781    0.00781
                         0.00781    0.00781    0.00781    0.00781    0.00781    0.00781
                         0.00781    0.00781    0.00781    0.00781    0.00781    0.00781
                         0.00781    0.00781
                       outvars : Printing only first  50 k-points.
           xangst      0.0000000000E+00  0.0000000000E+00  0.0000000000E+00
                       1.3672065412E+00  1.3672065412E+00  1.3672065412E+00
            xcart      0.0000000000E+00  0.0000000000E+00  0.0000000000E+00
                       2.5836459299E+00  2.5836459299E+00  2.5836459299E+00
             xred      0.0000000000E+00  0.0000000000E+00  0.0000000000E+00
                       2.5000000000E-01  2.5000000000E-01  2.5000000000E-01
            znucl       14.00000
 
================================================================================


- Timing analysis has been suppressed with timopt=0



================================================================================

 Suggested references for the acknowledgment of ABINIT usage.

 The users of ABINIT have little formal obligations with respect to the ABINIT group
 (those specified in the GNU General Public License, http://www.gnu.org/copyleft/gpl.txt).
 However, it is common practice in the scientific literature,
 to acknowledge the efforts of people that have made the research possible.
 In this spirit, please find below suggested citations of work written by ABINIT developers,
 corresponding to implementations inside of ABINIT that you have used in the present run.
 Note also that it will be of great value to readers of publications presenting these results,
 to read papers enabling them to understand the theoretical formalism and details
 of the ABINIT implementation.
 For information on why they are suggested, see also https://docs.abinit.org/theory/acknowledgments.
-
- [1] Recent developments in the ABINIT software package.
- Computer Phys. Comm. 205, 106 (2016).
- X.Gonze, F.Jollet, F.Abreu Araujo, D.Adams, B.Amadon, T.Applencourt,
- C.Audouze, J.-M.Beuken, J.Bieder, A.Bokhanchuk, E.Bousquet, F.Bruneval
- D.Caliste, M.Cote, F.Dahm, F.Da Pieve, M.Delaveau, M.Di Gennaro,
- B.Dorado, C.Espejo, G.Geneste, L.Genovese, A.Gerossier, M.Giantomassi,
- Y.Gillet, D.R.Hamann, L.He, G.Jomard, J.Laflamme Janssen, S.Le Roux,
- A.Levitt, A.Lherbier, F.Liu, I.Lukacevic, A.Martin, C.Martins,
- M.J.T.Oliveira, S.Ponce, Y.Pouillon, T.Rangel, G.-M.Rignanese,
- A.H.Romero, B.Rousseau, O.Rubel, A.A.Shukri, M.Stankovski, M.Torrent,
- M.J.Van Setten, B.Van Troeye, M.J.Verstraete, D.Waroquier, J.Wiktor,
- B.Xu, A.Zhou, J.W.Zwanziger.
- Comment: the fourth generic paper describing the ABINIT project.
- Note that a version of this paper, that is not formatted for Computer Phys. Comm. 
- is available at https://www.abinit.org/about/ABINIT16.pdf .
- The licence allows the authors to put it on the Web.
- DOI and bibtex: see https://docs.abinit.org/theory/bibliography/#gonze2016
-
- [2] First-principles responses of solids to atomic displacements and homogeneous electric fields:,
- implementation of a conjugate-gradient algorithm. X. Gonze, Phys. Rev. B55, 10337 (1997).
- Comment: Non-vanishing rfphon and/or rfelfd, in the norm-conserving case.
- DOI and bibtex: see https://docs.abinit.org/theory/bibliography/#gonze1997
-
- [3] Dynamical matrices, Born effective charges, dielectric permittivity tensors, and ,
- interatomic force constants from density-functional perturbation theory,
- X. Gonze and C. Lee, Phys. Rev. B55, 10355 (1997).
- Comment: Non-vanishing rfphon and/or rfelfd, in the norm-conserving case.
- DOI and bibtex: see https://docs.abinit.org/theory/bibliography/#gonze1997a
-
- [4] Optimized norm-conserving Vanderbilt pseudopotentials.
- D.R. Hamann, Phys. Rev. B 88, 085117 (2013).
- Comment: Some pseudopotential generated using the ONCVPSP code were used.
- DOI and bibtex: see https://docs.abinit.org/theory/bibliography/#hamann2013
-
- [5] ABINIT: First-principles approach of materials and nanosystem properties.
- Computer Phys. Comm. 180, 2582-2615 (2009).
- X. Gonze, B. Amadon, P.-M. Anglade, J.-M. Beuken, F. Bottin, P. Boulanger, F. Bruneval,
- D. Caliste, R. Caracas, M. Cote, T. Deutsch, L. Genovese, Ph. Ghosez, M. Giantomassi
- S. Goedecker, D.R. Hamann, P. Hermet, F. Jollet, G. Jomard, S. Leroux, M. Mancini, S. Mazevet,
- M.J.T. Oliveira, G. Onida, Y. Pouillon, T. Rangel, G.-M. Rignanese, D. Sangalli, R. Shaltaf,
- M. Torrent, M.J. Verstraete, G. Zerah, J.W. Zwanziger
- Comment: the third generic paper describing the ABINIT project.
- Note that a version of this paper, that is not formatted for Computer Phys. Comm. 
- is available at https://www.abinit.org/about/ABINIT_CPC_v10.pdf .
- The licence allows the authors to put it on the Web.
- DOI and bibtex: see https://docs.abinit.org/theory/bibliography/#gonze2009
-
- [6] A brief introduction to the ABINIT software package.
- Z. Kristallogr. 220, 558-562 (2005).
- X. Gonze, G.-M. Rignanese, M. Verstraete, J.-M. Beuken, Y. Pouillon, R. Caracas, F. Jollet,
- M. Torrent, G. Zerah, M. Mikami, Ph. Ghosez, M. Veithen, J.-Y. Raty, V. Olevano, F. Bruneval,
- L. Reining, R. Godby, G. Onida, D.R. Hamann, and D.C. Allan.
- Comment: the second generic paper describing the ABINIT project. Note that this paper
- should be cited especially if you are using the GW part of ABINIT, as several authors
- of this part are not in the list of authors of the first or third paper.
- The .pdf of the latter paper is available at https://www.abinit.org/about/zfk_0505-06_558-562.pdf.
- Note that it should not redistributed (Copyright by Oldenburg Wissenshaftverlag,
- the licence allows the authors to put it on the Web).
- DOI and bibtex: see https://docs.abinit.org/theory/bibliography/#gonze2005
-
- Proc.   0 individual time (sec): cpu=         52.6  wall=         65.5
 
================================================================================
 
 Calculation completed.
.Delivered   4 WARNINGs and  13 COMMENTs to log file.
+Overall time at end (sec) : cpu=       1406.5  wall=       1834.3
