
.Version 8.11.13 of ABINIT 
.(MPI version, prepared for a x86_64_linux_intel14.0 computer) 

.Copyright (C) 1998-2019 ABINIT group . 
 ABINIT comes with ABSOLUTELY NO WARRANTY.
 It is free software, and you are welcome to redistribute it
 under certain conditions (GNU General Public License,
 see ~abinit/COPYING or http://www.gnu.org/copyleft/gpl.txt).

 ABINIT is a project of the Universite Catholique de Louvain,
 Corning Inc. and other collaborators, see ~abinit/doc/developers/contributors.txt .
 Please read https://docs.abinit.org/theory/acknowledgments for suggested
 acknowledgments of the ABINIT effort.
 For more information, see https://www.abinit.org .

.Starting date : Wed  8 Jan 2020.
- ( at 15h59 )
  
- input  file    -> opt.in
- output file    -> opt.out
- root for input  files -> opti
- root for output files -> opto
 
 
 Symmetries : space group R-3 m (#166); Bravais hR (rhombohedral)
================================================================================
 Values of the parameters that define the memory need of the present run (RF).
     intxc =       0      iscf =      -3    lmnmax =       6     lnmax =       6
     mgfft =       6  mpssoang =       3    mqgrid =    3001     natom =       2
  nloc_mem =       1    nspden =       1   nspinor =       1    nsppol =       1
      nsym =      12    n1xccc =    2501    ntypat =       1    occopt =       1
   xclevel =       2
-    mband =           5        mffmem =           1         mkmem =       10652
-   mkqmem =       10652        mk1mem =       10652           mpw =          19
      nfft =         216          nkpt =       10652
================================================================================
P This job should need less than                      59.697 Mbytes of memory.
  Rough estimation (10% accuracy) of disk space for files :
_ WF disk file :     15.443 Mbytes ; DEN or POT disk file :      0.004 Mbytes.
================================================================================
 
--------------------------------------------------------------------------------
------------- Echo of variables that govern the present computation ------------
--------------------------------------------------------------------------------
-
- outvars: echo of selected default values                                      
-   iomode0 =  0 , fftalg0 =312 , wfoptalg0 =  0
-
- outvars: echo of global parameters not present in the input file              
-  max_nthreads =    0
-
 -outvars: echo values of preprocessed input variables --------
            acell      1.0000000000E+00  1.0000000000E+00  1.0000000000E+00 Bohr
              amu      2.80855000E+01
             ecut      4.00000000E+01 Hartree
-          fftalg         312
           irdwfk           1
             iscf          -3
           istwfk        1    0    0    0    0    0    0    0    0    0
                         0    1    0    0    0    0    0    0    0    0
                         0    0    0    0    0    0    0    0    0    0
                         0    0    0    0    0    0    0    0    0    0
                         0    0    0    0    0    0    0    0    0    0
                       outvar_i_n : Printing only first  50 k-points.
              ixc          11
              kpt      0.00000000E+00  0.00000000E+00  0.00000000E+00
                       0.00000000E+00  0.00000000E+00  4.54545455E-02
                       0.00000000E+00  0.00000000E+00  9.09090909E-02
                       0.00000000E+00  0.00000000E+00  1.36363636E-01
                       0.00000000E+00  0.00000000E+00  1.81818182E-01
                       0.00000000E+00  0.00000000E+00  2.27272727E-01
                       0.00000000E+00  0.00000000E+00  2.72727273E-01
                       0.00000000E+00  0.00000000E+00  3.18181818E-01
                       0.00000000E+00  0.00000000E+00  3.63636364E-01
                       0.00000000E+00  0.00000000E+00  4.09090909E-01
                       0.00000000E+00  0.00000000E+00  4.54545455E-01
                       0.00000000E+00  0.00000000E+00  5.00000000E-01
                       0.00000000E+00  4.54545455E-02  0.00000000E+00
                       4.54545455E-02  0.00000000E+00  0.00000000E+00
                       2.27272727E-02  2.27272727E-02  2.27272727E-02
                       0.00000000E+00  4.54545455E-02  4.54545455E-02
                       4.54545455E-02  0.00000000E+00  4.54545455E-02
                       2.27272727E-02  2.27272727E-02  6.81818182E-02
                       0.00000000E+00  4.54545455E-02  9.09090909E-02
                       4.54545455E-02  0.00000000E+00  9.09090909E-02
                       2.27272727E-02  2.27272727E-02  1.13636364E-01
                       0.00000000E+00  4.54545455E-02  1.36363636E-01
                       4.54545455E-02  0.00000000E+00  1.36363636E-01
                       2.27272727E-02  2.27272727E-02  1.59090909E-01
                       0.00000000E+00  4.54545455E-02  1.81818182E-01
                       4.54545455E-02  0.00000000E+00  1.81818182E-01
                       2.27272727E-02  2.27272727E-02  2.04545455E-01
                       0.00000000E+00  4.54545455E-02  2.27272727E-01
                       4.54545455E-02  0.00000000E+00  2.27272727E-01
                       2.27272727E-02  2.27272727E-02  2.50000000E-01
                       0.00000000E+00  4.54545455E-02  2.72727273E-01
                       4.54545455E-02  0.00000000E+00  2.72727273E-01
                       2.27272727E-02  2.27272727E-02  2.95454545E-01
                       0.00000000E+00  4.54545455E-02  3.18181818E-01
                       4.54545455E-02  0.00000000E+00  3.18181818E-01
                       2.27272727E-02  2.27272727E-02  3.40909091E-01
                       0.00000000E+00  4.54545455E-02  3.63636364E-01
                       4.54545455E-02  0.00000000E+00  3.63636364E-01
                       2.27272727E-02  2.27272727E-02  3.86363636E-01
                       0.00000000E+00  4.54545455E-02  4.09090909E-01
                       4.54545455E-02  0.00000000E+00  4.09090909E-01
                       2.27272727E-02  2.27272727E-02  4.31818182E-01
                       0.00000000E+00  4.54545455E-02  4.54545455E-01
                       4.54545455E-02  0.00000000E+00  4.54545455E-01
                       2.27272727E-02  2.27272727E-02  4.77272727E-01
                       0.00000000E+00  4.54545455E-02  5.00000000E-01
                       4.54545455E-02  0.00000000E+00  5.00000000E-01
                       2.27272727E-02  2.27272727E-02 -4.77272727E-01
                       0.00000000E+00  4.54545455E-02 -4.54545455E-01
                       4.54545455E-02  0.00000000E+00 -4.54545455E-01
                       outvar_i_n : Printing only first  50 k-points.
           kptopt           2
         kptrlatt        0   22   22     22    0   22     22   22    0
          kptrlen      3.11126984E+01
P           mkmem       10652
P          mkqmem       10652
P          mk1mem       10652
            natom           2
            nband           5
            ngfft           6       6       6
             nkpt       10652
             nqpt           1
             nsym          12
           ntypat           1
              occ      2.000000  2.000000  2.000000  2.000000  0.000000
        optdriver           1
            rfdir           1       1       1
           rfelfd           2
          spgroup         166
           symrel      1  0  0   0  1  0   0  0  1      -1  0  0   0 -1  0   0  0 -1
                       0  1  0   1  0  0   0  0  1       0 -1  0  -1  0  0   0  0 -1
                       0  0  1   1  0  0   0  1  0       0  0 -1  -1  0  0   0 -1  0
                       1  0  0   0  0  1   0  1  0      -1  0  0   0  0 -1   0 -1  0
                       0  1  0   0  0  1   1  0  0       0 -1  0   0  0 -1  -1  0  0
                       0  0  1   0  1  0   1  0  0       0  0 -1   0 -1  0  -1  0  0
            tnons      0.0000000  0.0000000  0.0000000     0.2500000  0.2500000  0.2500000
                       0.0000000  0.0000000  0.0000000     0.2500000  0.2500000  0.2500000
                       0.0000000  0.0000000  0.0000000     0.2500000  0.2500000  0.2500000
                       0.0000000  0.0000000  0.0000000     0.2500000  0.2500000  0.2500000
                       0.0000000  0.0000000  0.0000000     0.2500000  0.2500000  0.2500000
                       0.0000000  0.0000000  0.0000000     0.2500000  0.2500000  0.2500000
           tolvrs      1.00000000E-10
            typat      1  1
              wtk        0.00005    0.00009    0.00009    0.00009    0.00009    0.00009
                         0.00009    0.00009    0.00009    0.00009    0.00009    0.00005
                         0.00009    0.00009    0.00009    0.00009    0.00009    0.00009
                         0.00009    0.00009    0.00009    0.00009    0.00009    0.00009
                         0.00009    0.00009    0.00009    0.00009    0.00009    0.00009
                         0.00009    0.00009    0.00009    0.00009    0.00009    0.00009
                         0.00009    0.00009    0.00009    0.00009    0.00009    0.00009
                         0.00009    0.00009    0.00009    0.00009    0.00009    0.00009
                         0.00009    0.00009
                       outvars : Printing only first  50 k-points.
           xangst      0.0000000000E+00  0.0000000000E+00  0.0000000000E+00
                       1.3229430215E-01  1.3229430215E-01  1.3229430215E-01
            xcart      0.0000000000E+00  0.0000000000E+00  0.0000000000E+00
                       2.5000000000E-01  2.5000000000E-01  2.5000000000E-01
             xred      0.0000000000E+00  0.0000000000E+00  0.0000000000E+00
                       2.5000000000E-01  2.5000000000E-01  2.5000000000E-01
            znucl       14.00000
 
================================================================================
 
 chkinp: Checking input parameters for consistency.
 
================================================================================
== DATASET  1 ==================================================================
-   nproc =    1
 
 Exchange-correlation functional for the present dataset will be:
  GGA: Perdew-Burke-Ernzerhof functional - ixc=11
 Citation for XC functional:
  J.P.Perdew, K.Burke, M.Ernzerhof, PRL 77, 3865 (1996)
 
 Real(R)+Recip(G) space primitive vectors, cartesian coordinates (Bohr,Bohr^-1):
 R(1)=  1.0000000  0.0000000  0.0000000  G(1)=  1.0000000  0.0000000  0.0000000
 R(2)=  0.0000000  1.0000000  0.0000000  G(2)=  0.0000000  1.0000000  0.0000000
 R(3)=  0.0000000  0.0000000  1.0000000  G(3)=  0.0000000  0.0000000  1.0000000
 Unit cell volume ucvol=  1.0000000E+00 bohr^3
 Angles (23,13,12)=  9.00000000E+01  9.00000000E+01  9.00000000E+01 degrees
 setup1 : take into account q-point for computing boxcut.
 
 getcut: wavevector=  0.0000  0.0000  0.0000  ngfft=   6   6   6
         ecut(hartree)=     40.000   => boxcut(ratio)=   2.10744
 
--- Pseudopotential description ------------------------------------------------
- pspini: atom type   1  psp file is /CECI/home/ucl/naps/jovbever/.PsP/Si/Si.psp8
- pspatm: opening atomic psp file    /CECI/home/ucl/naps/jovbever/.PsP/Si/Si.psp8
- Si    ONCVPSP-3.2.3.1  r_core=   1.60303   1.72197   1.91712
- 14.00000   4.00000    170510                znucl, zion, pspdat
    8   11    2    4       600   0.00000      pspcod,pspxc,lmax,lloc,mmax,r2well
    5.99000000000000    4.00000000000000    0.00000000000000   rchrg,fchrg,qchrg
     nproj     2     2     2
     extension_switch     1
  pspatm : epsatm=    9.34321699
         --- l  ekb(1:nproj) -->
             0    5.168965    0.829883
             1    2.571282    0.578307
             2   -2.427311   -0.488097
 pspatm: atomic psp has been read  and splines computed
 
--------------------------------------------------------------------------------
 
-inwffil : will read wavefunctions from disk file opti_WFK
