  ABINIT 8.11.13
  
  Give name for formatted input file: 
sp.in
  Give name for formatted output file:
sp.out
  Give root name for generic input files:
spi
  Give root name for generic output files:
spo
  Give root name for generic temporary files:
sp

.Version 8.11.13 of ABINIT 
.(MPI version, prepared for a x86_64_linux_intel14.0 computer) 

.Copyright (C) 1998-2019 ABINIT group . 
 ABINIT comes with ABSOLUTELY NO WARRANTY.
 It is free software, and you are welcome to redistribute it
 under certain conditions (GNU General Public License,
 see ~abinit/COPYING or http://www.gnu.org/copyleft/gpl.txt).

 ABINIT is a project of the Universite Catholique de Louvain,
 Corning Inc. and other collaborators, see ~abinit/doc/developers/contributors.txt .
 Please read https://docs.abinit.org/theory/acknowledgments for suggested
 acknowledgments of the ABINIT effort.
 For more information, see https://www.abinit.org .

.Starting date : Thu 12 Dec 2019.
- ( at 17h35 )
  
 
 ++++++++++++++++++++++++++++++++++++++++++++++++++++++++++++++++++++++++++++++
 
 === Build Information === 
  Version       : 8.11.13
  Build target  : x86_64_linux_intel14.0
  Build date    : 20191206
 
 === Compiler Suite === 
  C compiler       : intel14.0
  C++ compiler     : gnu14.0
  Fortran compiler : intel14.0
  CFLAGS           :  -g -O2
  CXXFLAGS         :  -g -O2 -mtune=native -march=native
  FCFLAGS          :  -g -extend-source -nofpscomp
  FC_LDFLAGS       :    -static-intel -static-libgcc
 
 === Optimizations === 
  Debug level        : basic
  Optimization level : standard
  Architecture       : intel_xeon
 
 === Multicore === 
  Parallel build : yes
  Parallel I/O   : yes
  openMP support : no
  GPU support    : no
 
 === Connectors / Fallbacks === 
  Connectors on : yes
  Fallbacks on  : yes
  DFT flavor    : libxc-fallback
  FFT flavor    : fftw3
  LINALG flavor : mkl
  TIMER flavor  : abinit
  TRIO flavor   : netcdf
 
 === Experimental features === 
  Exports             : no
  GW double-precision : yes
 
 ++++++++++++++++++++++++++++++++++++++++++++++++++++++++++++++++++++++++++++++
 

 ++++++++++++++++++++++++++++++++++++++++++++++++++++++++++++++++++++++++++++++
 Default optimizations:
   -O3


 Optimizations for 43_ptgroups:
   -O0


 ++++++++++++++++++++++++++++++++++++++++++++++++++++++++++++++++++++++++++++++


 ++++++++++++++++++++++++++++++++++++++++++++++++++++++++++++++++++++++++++++++
 CPP options activated during the build:

                  CC_INTEL                   CXX_GNU                  FC_INTEL
 
 HAVE_FC_ALLOCATABLE_DT...             HAVE_FC_ASYNC  HAVE_FC_COMMAND_ARGUMENT
 
        HAVE_FC_CONTIGUOUS           HAVE_FC_CPUTIME             HAVE_FC_ETIME
 
              HAVE_FC_EXIT             HAVE_FC_FLUSH             HAVE_FC_GAMMA
 
            HAVE_FC_GETENV            HAVE_FC_GETPID   HAVE_FC_IEEE_ARITHMETIC
 
   HAVE_FC_IEEE_EXCEPTIONS             HAVE_FC_IOMSG     HAVE_FC_ISO_C_BINDING
 
  HAVE_FC_ISO_FORTRAN_2008        HAVE_FC_LONG_LINES        HAVE_FC_MOVE_ALLOC
 
  HAVE_FC_ON_THE_FLY_SHAPE           HAVE_FC_PRIVATE         HAVE_FC_PROTECTED
 
           HAVE_FC_SHIFTLR         HAVE_FC_STREAM_IO            HAVE_FC_SYSTEM
 
                  HAVE_FFT            HAVE_FFT_FFTW3              HAVE_FFT_MPI
 
           HAVE_FFT_SERIAL               HAVE_GW_DPC        HAVE_LIBPAW_ABINIT
 
      HAVE_LIBTETRA_ABINIT                HAVE_LIBXC               HAVE_LINALG
 
         HAVE_LINALG_AXPBY        HAVE_LINALG_GEMM3M  HAVE_LINALG_MKL_IMATCOPY
 
   HAVE_LINALG_MKL_OMATADD  HAVE_LINALG_MKL_OMATCOPY   HAVE_LINALG_MKL_THREADS
 
        HAVE_LINALG_SERIAL                  HAVE_MPI                 HAVE_MPI2
 
       HAVE_MPI_IALLREDUCE        HAVE_MPI_IALLTOALL       HAVE_MPI_IALLTOALLV
 
           HAVE_MPI_IBCAST         HAVE_MPI_IGATHERV        HAVE_MPI_INTEGER16
 
               HAVE_MPI_IO HAVE_MPI_TYPE_CREATE_S...               HAVE_NETCDF
 
           HAVE_NETCDF_MPI                HAVE_NUMPY             HAVE_OS_LINUX
 
         HAVE_TIMER_ABINIT                  HAVE_XML              USE_MACROAVE
 
 ++++++++++++++++++++++++++++++++++++++++++++++++++++++++++++++++++++++++++++++

- input  file    -> sp.in
- output file    -> sp.out
- root for input  files -> spi
- root for output files -> spo
 
Netcdf library supports MPI-IO
-instrng: 56 lines of input have been read from file sp.in
 

 Please give name of formatted atomic psp file
 For atom type 1, psp file is /CECI/home/ucl/naps/jovbever/.PsP/CTO/Ca.psp8

 Please give name of formatted atomic psp file
 For atom type 2, psp file is /CECI/home/ucl/naps/jovbever/.PsP/CTO/Ti.psp8

 Please give name of formatted atomic psp file
 For atom type 3, psp file is /CECI/home/ucl/naps/jovbever/.PsP/CTO/O.psp8
  read the values zionpsp= 10.0 , pspcod=   8 , lmax=   2
  read the values zionpsp= 12.0 , pspcod=   8 , lmax=   2
  read the values zionpsp=  6.0 , pspcod=   8 , lmax=   2
 
 inpspheads: deduce mpsang = 3, n1xccc = 2501.

======================================================= 
invars1m : enter jdtset= 0
 
 symlatt: the Bravais lattice is oP (primitive orthorhombic)
  xred   is defined in input file
 ingeo: takes atomic coordinates from input array xred
 
 symlatt: the Bravais lattice is oP (primitive orthorhombic)
 
 symlatt: the Bravais lattice is oP (primitive orthorhombic)
 symspgr: spgroup=  62  Pn m a   (=D2h^16)
 For input ecut=  4.000000E+01 best grid ngfft=      32      32      45
       max ecut=  4.031551E+01
 
 ==== FFT mesh ====
  FFT mesh divisions ........................    32   32   45
  Augmented FFT divisions ...................    33   33   45
  FFT algorithm .............................   312
  FFT cache size ............................    16
 getmpw: optimal value of mpw= 2786
 
 Symmetries : space group Pn m a (# 62); Bravais oP (primitive ortho.)
 
 getdim_nloc : deduce lmnmax  =  18, lnmax  =   6,
                      lmnmaxso=  18, lnmaxso=   6.
memory: analysis of memory needs
================================================================================
 Values of the parameters that define the memory need of the present run
     intxc =       0    ionmov =       0      iscf =       7    lmnmax =       6
     lnmax =       6     mgfft =      45  mpssoang =       3    mqgrid =    3001
     natom =      20  nloc_mem =       1    nspden =       1   nspinor =       1
    nsppol =       1      nsym =       8    n1xccc =    2501    ntypat =       3
    occopt =       1   xclevel =       1
-    mband =          80        mffmem =           1         mkmem =           9
       mpw =        2786          nfft =       46080          nkpt =          27
================================================================================
P This job should need less than                      48.373 Mbytes of memory.
  Rough estimation (10% accuracy) of disk space for files :
_ WF disk file :     91.826 Mbytes ; DEN or POT disk file :      0.354 Mbytes.
================================================================================
 
 Biggest array : cg(disk), with     30.6099 MBytes.
 memana : allocated an array of     30.610 Mbytes, for testing purposes.
 memana: allocated      48.373Mbytes, for testing purposes. 
 The job will continue.
--------------------------------------------------------------------------------
------------- Echo of variables that govern the present computation ------------
--------------------------------------------------------------------------------
-
- outvars: echo of selected default values                                      
-   iomode0 =  0 , fftalg0 =312 , wfoptalg0 =  0
-
- outvars: echo of global parameters not present in the input file              
-  max_nthreads =    0
-
 -outvars: echo values of preprocessed input variables --------
 
 These variables are accessible in NetCDF format (spo_OUT.nc)

            acell      5.4040000000E+00  5.5130000000E+00  7.6970000000E+00 Bohr
              amu      4.00780000E+01  4.78800000E+01  1.59994000E+01
             ecut      4.00000000E+01 Hartree
-          fftalg         312
              kpt      8.33333333E-02  8.33333333E-02  8.33333333E-02
                       2.50000000E-01  8.33333333E-02  8.33333333E-02
                       4.16666667E-01  8.33333333E-02  8.33333333E-02
                       8.33333333E-02  2.50000000E-01  8.33333333E-02
                       2.50000000E-01  2.50000000E-01  8.33333333E-02
                       4.16666667E-01  2.50000000E-01  8.33333333E-02
                       8.33333333E-02  4.16666667E-01  8.33333333E-02
                       2.50000000E-01  4.16666667E-01  8.33333333E-02
                       4.16666667E-01  4.16666667E-01  8.33333333E-02
                       8.33333333E-02  8.33333333E-02  2.50000000E-01
                       2.50000000E-01  8.33333333E-02  2.50000000E-01
                       4.16666667E-01  8.33333333E-02  2.50000000E-01
                       8.33333333E-02  2.50000000E-01  2.50000000E-01
                       2.50000000E-01  2.50000000E-01  2.50000000E-01
                       4.16666667E-01  2.50000000E-01  2.50000000E-01
                       8.33333333E-02  4.16666667E-01  2.50000000E-01
                       2.50000000E-01  4.16666667E-01  2.50000000E-01
                       4.16666667E-01  4.16666667E-01  2.50000000E-01
                       8.33333333E-02  8.33333333E-02  4.16666667E-01
                       2.50000000E-01  8.33333333E-02  4.16666667E-01
                       4.16666667E-01  8.33333333E-02  4.16666667E-01
                       8.33333333E-02  2.50000000E-01  4.16666667E-01
                       2.50000000E-01  2.50000000E-01  4.16666667E-01
                       4.16666667E-01  2.50000000E-01  4.16666667E-01
                       8.33333333E-02  4.16666667E-01  4.16666667E-01
                       2.50000000E-01  4.16666667E-01  4.16666667E-01
                       4.16666667E-01  4.16666667E-01  4.16666667E-01
         kptrlatt        6    0    0      0    6    0      0    0    6
          kptrlen      3.24240000E+01
P           mkmem           9
            natom          20
            nband          80
            ngfft          32      32      45
             nkpt          27
             nsym           8
           ntypat           3
              occ      2.000000  2.000000  2.000000  2.000000  2.000000  2.000000
                       2.000000  2.000000  2.000000  2.000000  2.000000  2.000000
                       2.000000  2.000000  2.000000  2.000000  2.000000  2.000000
                       2.000000  2.000000  2.000000  2.000000  2.000000  2.000000
                       2.000000  2.000000  2.000000  2.000000  2.000000  2.000000
                       2.000000  2.000000  2.000000  2.000000  2.000000  2.000000
                       2.000000  2.000000  2.000000  2.000000  2.000000  2.000000
                       2.000000  2.000000  2.000000  2.000000  2.000000  2.000000
                       2.000000  2.000000  2.000000  2.000000  2.000000  2.000000
                       2.000000  2.000000  2.000000  2.000000  2.000000  2.000000
                       2.000000  2.000000  2.000000  2.000000  2.000000  2.000000
                       2.000000  2.000000  2.000000  2.000000  2.000000  2.000000
                       2.000000  2.000000  2.000000  2.000000  2.000000  2.000000
                       2.000000  2.000000
           shiftk      5.00000000E-01  5.00000000E-01  5.00000000E-01
          spgroup          62
           symrel      1  0  0   0  1  0   0  0  1      -1  0  0   0 -1  0   0  0 -1
                      -1  0  0   0  1  0   0  0 -1       1  0  0   0 -1  0   0  0  1
                      -1  0  0   0 -1  0   0  0  1       1  0  0   0  1  0   0  0 -1
                       1  0  0   0 -1  0   0  0 -1      -1  0  0   0  1  0   0  0  1
            tnons      0.0000000  0.0000000  0.0000000     0.0000000  0.0000000  0.0000000
                       0.5000000  0.5000000  0.5000000     0.5000000  0.5000000  0.5000000
                       0.0000000  0.0000000  0.5000000     0.0000000  0.0000000  0.5000000
                       0.5000000  0.5000000  0.0000000     0.5000000  0.5000000  0.0000000
           toldfe      1.00000000E-10 Hartree
            typat      1  1  1  1  2  2  2  2  3  3  3  3  3  3  3  3  3  3  3  3
              wtk        0.03704    0.03704    0.03704    0.03704    0.03704    0.03704
                         0.03704    0.03704    0.03704    0.03704    0.03704    0.03704
                         0.03704    0.03704    0.03704    0.03704    0.03704    0.03704
                         0.03704    0.03704    0.03704    0.03704    0.03704    0.03704
                         0.03704    0.03704    0.03704
           xangst      2.4307225899E-02  2.7866564940E+00  3.0548077309E+00
                       1.4055295917E+00  1.3279795185E+00  3.0548077309E+00
                       1.4541440435E+00  1.5893744325E+00  1.0182692436E+00
                       2.8353664093E+00  1.3069745700E-01  1.0182692436E+00
                       0.0000000000E+00  1.4586769755E+00  0.0000000000E+00
                       0.0000000000E+00  1.4586769755E+00  2.0365384873E+00
                       1.4298368176E+00  0.0000000000E+00  0.0000000000E+00
                       1.4298368176E+00  0.0000000000E+00  2.0365384873E+00
                       2.2334051091E-01  1.3985794841E+00  1.0182692436E+00
                       5.9338227931E-01  6.0710135719E-01  2.2023127201E+00
                       5.9338227931E-01  6.0710135719E-01  3.9073027417E+00
                       8.3645453830E-01  2.0657783327E+00  3.9073027417E+00
                       8.3645453830E-01  2.0657783327E+00  2.2023127201E+00
                       1.2064963067E+00  2.8572564596E+00  1.0182692436E+00
                       1.6531773285E+00  6.0097491390E-02  3.0548077309E+00
                       2.0232190969E+00  8.5157561828E-01  1.8707642544E+00
                       2.0232190969E+00  8.5157561828E-01  1.6577423286E-01
                       2.2662913559E+00  2.3102525938E+00  1.6577423286E-01
                       2.2662913559E+00  2.3102525938E+00  1.8707642544E+00
                       2.6363331243E+00  1.5187744669E+00  3.0548077309E+00
            xcart      4.5934000000E-02  5.2660176000E+00  5.7727500000E+00
                       2.6560660000E+00  2.5095176000E+00  5.7727500000E+00
                       2.7479340000E+00  3.0034824000E+00  1.9242500000E+00
                       5.3580660000E+00  2.4698240000E-01  1.9242500000E+00
                       0.0000000000E+00  2.7565000000E+00  0.0000000000E+00
                       0.0000000000E+00  2.7565000000E+00  3.8485000000E+00
                       2.7020000000E+00  0.0000000000E+00  0.0000000000E+00
                       2.7020000000E+00  0.0000000000E+00  3.8485000000E+00
                       4.2205240000E-01  2.6429322000E+00  1.9242500000E+00
                       1.1213300000E+00  1.1472553000E+00  4.1617679000E+00
                       1.1213300000E+00  1.1472553000E+00  7.3837321000E+00
                       1.5806700000E+00  3.9037553000E+00  7.3837321000E+00
                       1.5806700000E+00  3.9037553000E+00  4.1617679000E+00
                       2.2799476000E+00  5.3994322000E+00  1.9242500000E+00
                       3.1240524000E+00  1.1356780000E-01  5.7727500000E+00
                       3.8233300000E+00  1.6092447000E+00  3.5352321000E+00
                       3.8233300000E+00  1.6092447000E+00  3.1326790000E-01
                       4.2826700000E+00  4.3657447000E+00  3.1326790000E-01
                       4.2826700000E+00  4.3657447000E+00  3.5352321000E+00
                       4.9819476000E+00  2.8700678000E+00  5.7727500000E+00
             xred      8.5000000000E-03  9.5520000000E-01  7.5000000000E-01
                       4.9150000000E-01  4.5520000000E-01  7.5000000000E-01
                       5.0850000000E-01  5.4480000000E-01  2.5000000000E-01
                       9.9150000000E-01  4.4800000000E-02  2.5000000000E-01
                       0.0000000000E+00  5.0000000000E-01  0.0000000000E+00
                       0.0000000000E+00  5.0000000000E-01  5.0000000000E-01
                       5.0000000000E-01  0.0000000000E+00  0.0000000000E+00
                       5.0000000000E-01  0.0000000000E+00  5.0000000000E-01
                       7.8100000000E-02  4.7940000000E-01  2.5000000000E-01
                       2.0750000000E-01  2.0810000000E-01  5.4070000000E-01
                       2.0750000000E-01  2.0810000000E-01  9.5930000000E-01
                       2.9250000000E-01  7.0810000000E-01  9.5930000000E-01
                       2.9250000000E-01  7.0810000000E-01  5.4070000000E-01
                       4.2190000000E-01  9.7940000000E-01  2.5000000000E-01
                       5.7810000000E-01  2.0600000000E-02  7.5000000000E-01
                       7.0750000000E-01  2.9190000000E-01  4.5930000000E-01
                       7.0750000000E-01  2.9190000000E-01  4.0700000000E-02
                       7.9250000000E-01  7.9190000000E-01  4.0700000000E-02
                       7.9250000000E-01  7.9190000000E-01  4.5930000000E-01
                       9.2190000000E-01  5.2060000000E-01  7.5000000000E-01
            znucl       20.00000   22.00000    8.00000
 
================================================================================
 
 chkinp: Checking input parameters for consistency.
 DATA TYPE INFORMATION: 
 REAL:      Data type name: REAL(DP) 
            Kind value:      8
            Precision:      15
            Smallest nonnegligible quantity relative to 1:  0.22204460E-15
            Smallest positive number:                       0.22250739-307
            Largest representable number:                   0.17976931+309
 INTEGER:   Data type name: INTEGER(default) 
            Kind value: 4
            Bit size:   32
            Largest representable number: 2147483647
 LOGICAL:   Data type name: LOGICAL 
            Kind value: 4
 CHARACTER: Data type name: CHARACTER             Kind value: 1

  ==== OpenMP parallelism is OFF ====
 
  ==== Using MPI-2 specifications ==== 
  MPI-IO support is ON
  xmpi_tag_ub ................   1073741824
  xmpi_bsize_ch ..............            1
  xmpi_bsize_int .............            4
  xmpi_bsize_sp ..............            4
  xmpi_bsize_dp ..............            8
  xmpi_bsize_spc .............            8
  xmpi_bsize_dpc .............           16
  xmpio_bsize_frm ............            4
  xmpi_address_kind ..........            8
  xmpi_offset_kind ...........            8
  MPI_WTICK ..................   1.000000000000000E-006
 
================================================================================
== DATASET  1 ==================================================================
-   nproc =    3
 
 
--- !COMMENT
src_file: m_xgScalapack.F90
src_line: 237
message: |
    xgScalapack in auto mode
...
 
 
 getdim_nloc : deduce lmnmax  =  18, lnmax  =   6,
                      lmnmaxso=  18, lnmaxso=   6.
 Exchange-correlation functional for the present dataset will be:
  LDA: new Teter (4/93) with spin-polarized option - ixc=1
 Citation for XC functional:
  S. Goedecker, M. Teter, J. Huetter, PRB 54, 1703 (1996)
 
 Unit cell volume ucvol=  2.2931096E+02 bohr^3
 Angles (23,13,12)=  9.00000000E+01  9.00000000E+01  9.00000000E+01 degrees
 
 getcut: wavevector=  0.0000  0.0000  0.0000  ngfft=  32  32  45
         ecut(hartree)=     40.000   => boxcut(ratio)=   2.00787
- pspini: atom type   1  psp file is /CECI/home/ucl/naps/jovbever/.PsP/CTO/Ca.psp8
- pspatm: opening atomic psp file    /CECI/home/ucl/naps/jovbever/.PsP/CTO/Ca.psp8
- Ca    ONCVPSP-3.2.3.1  r_core=   1.45885   1.45885   1.85192
- 20.00000  10.00000    170504                znucl, zion, pspdat
    8   11    2    4       400   0.00000      pspcod,pspxc,lmax,lloc,mmax,r2well
 
--- !WARNING
src_file: m_pspini.F90
src_line: 1073
message: |
    Pseudopotential file pspxc= 11,
    not equal to input ixc= 1.
    These parameters must agree to get the same xc 
    in ABINIT code as in psp construction.
    Action: check psp design or input file.
    Assume experienced user. Execution will continue.
...
 
    3.99000000000000    6.00000000000000    0.00000000000000   rchrg,fchrg,qchrg
     nproj     2     2     2
     extension_switch     1
  valence charge integrates to:    9.09063937994142     
  pspatm : epsatm=   12.33414111
         --- l  ekb(1:nproj) -->
             0   10.063789    0.972391
             1    3.049878    0.471799
             2   -3.406671   -1.078890
 pspatm: atomic psp has been read  and splines computed
 
- pspini: atom type   2  psp file is /CECI/home/ucl/naps/jovbever/.PsP/CTO/Ti.psp8
- pspatm: opening atomic psp file    /CECI/home/ucl/naps/jovbever/.PsP/CTO/Ti.psp8
- Ti    ONCVPSP-3.2.3.1  r_core=   1.35825   1.31050   1.66360
- 22.00000  12.00000    170504                znucl, zion, pspdat
    8   11    2    4       600   0.00000      pspcod,pspxc,lmax,lloc,mmax,r2well
 
--- !WARNING
src_file: m_pspini.F90
src_line: 1073
message: |
    Pseudopotential file pspxc= 11,
    not equal to input ixc= 1.
    These parameters must agree to get the same xc 
    in ABINIT code as in psp construction.
    Action: check psp design or input file.
    Assume experienced user. Execution will continue.
...
 
    5.99000000000000    2.50000000000000    0.00000000000000   rchrg,fchrg,qchrg
     nproj     2     2     2
     extension_switch     1
  valence charge integrates to:    11.8891845495734     
  pspatm : epsatm=   14.68144390
         --- l  ekb(1:nproj) -->
             0   11.362348    1.263639
             1    1.975402   -0.084666
             2   -5.186090   -1.477451
 pspatm: atomic psp has been read  and splines computed
 
- pspini: atom type   3  psp file is /CECI/home/ucl/naps/jovbever/.PsP/CTO/O.psp8
- pspatm: opening atomic psp file    /CECI/home/ucl/naps/jovbever/.PsP/CTO/O.psp8
- O     ONCVPSP-3.2.3.1  r_core=   1.35509   1.45563   1.26150
-  8.00000   6.00000    170504                znucl, zion, pspdat
    8   11    2    4       600   0.00000      pspcod,pspxc,lmax,lloc,mmax,r2well
 
--- !WARNING
src_file: m_pspini.F90
src_line: 1073
message: |
    Pseudopotential file pspxc= 11,
    not equal to input ixc= 1.
    These parameters must agree to get the same xc 
    in ABINIT code as in psp construction.
    Action: check psp design or input file.
    Assume experienced user. Execution will continue.
...
 
    5.99000000000000    4.00000000000000    0.00000000000000   rchrg,fchrg,qchrg
     nproj     2     2     1
     extension_switch     1
  valence charge integrates to:    5.99903187524054     
  pspatm : epsatm=    6.19546011
         --- l  ekb(1:nproj) -->
             0    6.056735    0.824024
             1   -4.717130   -1.149271
             2   -1.331955
 pspatm: atomic psp has been read  and splines computed
 
   2.91852578E+04                                ecore*ucvol(ha*bohr**3)
 ==== Info on pseudopotentials ====
  Norm-conserving pseudopotentials
  Number of pseudopotentials ..    3
  Number of types of atoms   ..    3
  Scalar calculation (no spin-orbit term)
  Nonlocal part applied using Legendre polynomials
  Max number of non-local projectors over l and type   2
  Highest angular momentum +1 .......   3
  Max number of (l,n)   components ..   6
  Max number of (l,m,n) components ..   6
 
 Pseudo-Core Charge Info: 
   Number of radial points for pseudo-core charge .. 2501
   XC core-correction treatment (optnlxccc) ........    1
   Radius for pseudo-core charge for each type ..... 
 
  - Atom type    1 has pseudo-core radius ..  3.9900
  - Atom type    2 has pseudo-core radius ..  5.9900
  - Atom type    3 has pseudo-core radius ..  5.9900
 
 Info on the Q-grid used for form factors in spline form: 
   Number of q-points for radial functions ffspl ..   3001
   Number of q-points for vlspl ...................   3001
   vloc is computed in Reciprocal Space
   model core charge treated in real-space
 
  XC functional for type 1 is 11
  Pseudo valence available: yes
  XC functional for type 2 is 11
  Pseudo valence available: yes
  XC functional for type 3 is 11
  Pseudo valence available: yes
 
 wfconv:    80 bands initialized randomly with npw=  2775, for ikpt=     1
 wfconv:    80 bands initialized randomly with npw=  2766, for ikpt=     2
 wfconv:    80 bands initialized randomly with npw=  2759, for ikpt=     3
 wfconv:    80 bands initialized randomly with npw=  2771, for ikpt=     4
 wfconv:    80 bands initialized randomly with npw=  2768, for ikpt=     5
 wfconv:    80 bands initialized randomly with npw=  2771, for ikpt=     6
 wfconv:    80 bands initialized randomly with npw=  2779, for ikpt=     7
 wfconv:    80 bands initialized randomly with npw=  2769, for ikpt=     8
 wfconv:    80 bands initialized randomly with npw=  2752, for ikpt=     9
_setup2: Arith. and geom. avg. npw (full set) are    2770.963    2770.949
 initro: for itypat=  1, take pseudo charge density from pp file
 initro: for itypat=  2, take pseudo charge density from pp file
 initro: for itypat=  3, take pseudo charge density from pp file
 
================================================================================
 
 getcut: wavevector=  0.0000  0.0000  0.0000  ngfft=  32  32  45
         ecut(hartree)=     40.000   => boxcut(ratio)=   2.00787
 
 ITER STEP NUMBER     1
 vtorho: nnsclo_now=2, note that nnsclo,dbl_nnsclo,istep=0 0 1
 
--- !WARNING
src_file: m_vtorho.F90
src_line: 1699
message: |
    For k-point number 1,
    The minimal occupation factor is  2.000.
    An adequate monitoring of convergence requires it to be  at most 0.01_dp.
    Action: increase slightly the number of bands.
...
 
 Total charge density [el/Bohr^3]
      Maximum=    1.8460E+00  at reduced coord.    0.0000    0.5938    0.5556
      Minimum=    7.7616E-02  at reduced coord.    0.0000    0.0313    0.2444
   Integrated=    1.6000E+02
 ETOT  1  -535.44554092276    -5.354E+02 2.787E-01 1.097E+03
 scprqt: <Vxc>= -9.4160728E-01 hartree
 
 Simple mixing update:
  residual square of the potential:    718.802978181704
 scfcv_core: previous iteration took 03:41 [minutes]
 
 ITER STEP NUMBER     2
 vtorho: nnsclo_now=2, note that nnsclo,dbl_nnsclo,istep=0 0 2
 
--- !WARNING
src_file: m_vtorho.F90
src_line: 1699
message: |
    For k-point number 1,
    The minimal occupation factor is  2.000.
    An adequate monitoring of convergence requires it to be  at most 0.01_dp.
    Action: increase slightly the number of bands.
...
 
 Total charge density [el/Bohr^3]
      Maximum=    1.7252E+00  at reduced coord.    0.0000    0.5938    0.5556
      Minimum=    7.9236E-02  at reduced coord.    0.0000    0.0313    0.2444
   Integrated=    1.6000E+02
 ETOT  2  -537.24972538927    -1.804E+00 4.610E-02 6.879E+02
 scprqt: <Vxc>= -9.4710135E-01 hartree
 
 Pulay update with  1 previous iterations:
 mixing of old trial potential: alpha(m:m-4)=  0.578      0.422
 scfcv_core: previous iteration took 03:40 [minutes]
 
 ITER STEP NUMBER     3
 vtorho: nnsclo_now=1, note that nnsclo,dbl_nnsclo,istep=0 0 3
 
--- !WARNING
src_file: m_vtorho.F90
src_line: 1699
message: |
    For k-point number 1,
    The minimal occupation factor is  2.000.
    An adequate monitoring of convergence requires it to be  at most 0.01_dp.
    Action: increase slightly the number of bands.
...
 
 Total charge density [el/Bohr^3]
      Maximum=    1.8303E+00  at reduced coord.    0.0000    0.5938    0.5556
      Minimum=    7.6699E-02  at reduced coord.    0.0000    0.0313    0.2444
   Integrated=    1.6000E+02
 ETOT  3  -537.56683914343    -3.171E-01 2.335E-02 6.236E+01
 scprqt: <Vxc>= -9.4581660E-01 hartree
 
 Pulay update with  2 previous iterations:
 mixing of old trial potential: alpha(m:m-4)=  0.573      0.295      0.132
 scfcv_core: previous iteration took 01:51 [minutes]
 
 ITER STEP NUMBER     4
 vtorho: nnsclo_now=1, note that nnsclo,dbl_nnsclo,istep=0 0 4
 
--- !WARNING
src_file: m_vtorho.F90
src_line: 1699
message: |
    For k-point number 1,
    The minimal occupation factor is  2.000.
    An adequate monitoring of convergence requires it to be  at most 0.01_dp.
    Action: increase slightly the number of bands.
...
 
 Total charge density [el/Bohr^3]
      Maximum=    1.8007E+00  at reduced coord.    0.0000    0.5938    0.5556
      Minimum=    7.7233E-02  at reduced coord.    0.0000    0.0313    0.2444
   Integrated=    1.6000E+02
 ETOT  4  -537.63628495739    -6.945E-02 1.101E-02 5.050E-01
 scprqt: <Vxc>= -9.4582444E-01 hartree
 
 Pulay update with  3 previous iterations:
 mixing of old trial potential: alpha(m:m-4)=  0.690      0.174      0.945E-01  0.422E-01
 scfcv_core: previous iteration took 01:51 [minutes]
 
 ITER STEP NUMBER     5
 vtorho: nnsclo_now=1, note that nnsclo,dbl_nnsclo,istep=0 0 5
 
--- !WARNING
src_file: m_vtorho.F90
src_line: 1699
message: |
    For k-point number 1,
    The minimal occupation factor is  2.000.
    An adequate monitoring of convergence requires it to be  at most 0.01_dp.
    Action: increase slightly the number of bands.
...
 
 Total charge density [el/Bohr^3]
      Maximum=    1.8103E+00  at reduced coord.    0.0000    0.5938    0.5556
      Minimum=    7.7331E-02  at reduced coord.    0.0000    0.0313    0.2444
   Integrated=    1.6000E+02
 ETOT  5  -537.65768118424    -2.140E-02 1.283E-02 1.604E+00
 scprqt: <Vxc>= -9.4578574E-01 hartree
 
 Pulay update with  4 previous iterations:
 mixing of old trial potential: alpha(m:m-4)=   1.08      0.553E-02 -0.107      0.232E-01  0.216E-02
 scfcv_core: previous iteration took 01:51 [minutes]
 
 ITER STEP NUMBER     6
 vtorho: nnsclo_now=1, note that nnsclo,dbl_nnsclo,istep=0 0 6
 Total charge density [el/Bohr^3]
      Maximum=    1.8036E+00  at reduced coord.    0.0000    0.5938    0.5556
      Minimum=    7.7494E-02  at reduced coord.    0.0000    0.0313    0.2444
   Integrated=    1.6000E+02
 ETOT  6  -537.67113916890    -1.346E-02 5.239E-03 1.759E-01
 scprqt: <Vxc>= -9.4579033E-01 hartree
 
 Pulay update with  5 previous iterations:
 mixing of old trial potential: alpha(m:m-4)=  0.536      0.554     -0.465E-01 -0.456E-01  0.349E-02
 scfcv_core: previous iteration took 01:51 [minutes]
 
 ITER STEP NUMBER     7
 vtorho: nnsclo_now=1, note that nnsclo,dbl_nnsclo,istep=0 0 7
 Total charge density [el/Bohr^3]
      Maximum=    1.8062E+00  at reduced coord.    0.0000    0.5938    0.5556
      Minimum=    7.7467E-02  at reduced coord.    0.0000    0.0313    0.2444
   Integrated=    1.6000E+02
 ETOT  7  -537.67923913100    -8.100E-03 5.725E-03 1.669E-02
 scprqt: <Vxc>= -9.4579841E-01 hartree
 
 Pulay update with  6 previous iterations:
 mixing of old trial potential: alpha(m:m-4)=  0.881      0.171     -0.386E-01 -0.177E-01  0.315E-02
 scfcv_core: previous iteration took 01:51 [minutes]
 
 ITER STEP NUMBER     8
 vtorho: nnsclo_now=1, note that nnsclo,dbl_nnsclo,istep=0 0 8
 Total charge density [el/Bohr^3]
      Maximum=    1.8053E+00  at reduced coord.    0.0000    0.5938    0.5556
      Minimum=    7.7490E-02  at reduced coord.    0.0000    0.0313    0.2444
   Integrated=    1.6000E+02
 ETOT  8  -537.68445178179    -5.213E-03 2.857E-03 1.139E-02
 scprqt: <Vxc>= -9.4578564E-01 hartree
 
 Pulay update with  7 previous iterations:
 mixing of old trial potential: alpha(m:m-4)=  0.964      0.533     -0.237     -0.307      0.198E-01
 scfcv_core: previous iteration took 01:51 [minutes]
 
 ITER STEP NUMBER     9
 vtorho: nnsclo_now=1, note that nnsclo,dbl_nnsclo,istep=0 0 9
 Total charge density [el/Bohr^3]
      Maximum=    1.8062E+00  at reduced coord.    0.0000    0.5938    0.5556
      Minimum=    7.7472E-02  at reduced coord.    0.0000    0.0313    0.2444
   Integrated=    1.6000E+02
 ETOT  9  -537.68796690986    -3.515E-03 2.773E-03 1.864E-02
 scprqt: <Vxc>= -9.4579409E-01 hartree
 
 Pulay update with  7 previous iterations:
 mixing of old trial potential: alpha(m:m-4)=  0.586      0.505E-01  0.141      0.209      0.234E-01
 scfcv_core: previous iteration took 01:46 [minutes]
 
 ITER STEP NUMBER    10
 vtorho: nnsclo_now=1, note that nnsclo,dbl_nnsclo,istep=0 0 10
 Total charge density [el/Bohr^3]
      Maximum=    1.8058E+00  at reduced coord.    0.0000    0.5938    0.5556
      Minimum=    7.7485E-02  at reduced coord.    0.0000    0.0313    0.2444
   Integrated=    1.6000E+02
 ETOT 10  -537.69044530281    -2.478E-03 1.764E-03 3.174E-03
 scprqt: <Vxc>= -9.4578388E-01 hartree
 
 Pulay update with  7 previous iterations:
 mixing of old trial potential: alpha(m:m-4)= -0.879E-01  0.517      0.218      0.216      0.153
 scfcv_core: previous iteration took 01:28 [minutes]
 
 ITER STEP NUMBER    11
 vtorho: nnsclo_now=1, note that nnsclo,dbl_nnsclo,istep=0 0 11
 Total charge density [el/Bohr^3]
      Maximum=    1.8061E+00  at reduced coord.    0.0000    0.5938    0.5556
      Minimum=    7.7479E-02  at reduced coord.    0.0000    0.0313    0.2444
   Integrated=    1.6000E+02
 ETOT 11  -537.69222863761    -1.783E-03 1.673E-03 2.524E-02
 scprqt: <Vxc>= -9.4578859E-01 hartree
 
 Pulay update with  7 previous iterations:
 mixing of old trial potential: alpha(m:m-4)= -0.553      0.929      0.694     -0.114      0.196E-01
 scfcv_core: previous iteration took 01:28 [minutes]
 
 ITER STEP NUMBER    12
 vtorho: nnsclo_now=1, note that nnsclo,dbl_nnsclo,istep=0 0 12
 Total charge density [el/Bohr^3]
      Maximum=    1.8059E+00  at reduced coord.    0.0000    0.5938    0.5556
      Minimum=    7.7484E-02  at reduced coord.    0.0000    0.0313    0.2444
   Integrated=    1.6000E+02
 ETOT 12  -537.69357833303    -1.350E-03 1.069E-03 1.229E-02
 scprqt: <Vxc>= -9.4578418E-01 hartree
 
 Pulay update with  7 previous iterations:
 mixing of old trial potential: alpha(m:m-4)=  0.235     -0.673      0.723      0.588     -0.100
 scfcv_core: previous iteration took 01:29 [minutes]
 
 ITER STEP NUMBER    13
 vtorho: nnsclo_now=1, note that nnsclo,dbl_nnsclo,istep=0 0 13
 Total charge density [el/Bohr^3]
      Maximum=    1.8061E+00  at reduced coord.    0.0000    0.5938    0.5556
      Minimum=    7.7477E-02  at reduced coord.    0.0000    0.0313    0.2444
   Integrated=    1.6000E+02
 ETOT 13  -537.69459623804    -1.018E-03 1.162E-03 3.455E-02
 scprqt: <Vxc>= -9.4578695E-01 hartree
 
 Pulay update with  7 previous iterations:
 mixing of old trial potential: alpha(m:m-4)=   1.15     -0.613      -2.03       1.74      0.686
 scfcv_core: previous iteration took 01:29 [minutes]
 
 ITER STEP NUMBER    14
 vtorho: nnsclo_now=1, note that nnsclo,dbl_nnsclo,istep=0 0 14
 Total charge density [el/Bohr^3]
      Maximum=    1.8062E+00  at reduced coord.    0.0000    0.5938    0.5556
      Minimum=    7.7475E-02  at reduced coord.    0.0000    0.0313    0.2444
   Integrated=    1.6000E+02
 ETOT 14  -537.69540219335    -8.060E-04 6.540E-04 3.729E-02
 scprqt: <Vxc>= -9.4578278E-01 hartree
 
 Pulay update with  7 previous iterations:
 mixing of old trial potential: alpha(m:m-4)=  -1.22      0.911      0.860     -0.758      0.650
 scfcv_core: previous iteration took 01:29 [minutes]
 
 ITER STEP NUMBER    15
 vtorho: nnsclo_now=1, note that nnsclo,dbl_nnsclo,istep=0 0 15
 Total charge density [el/Bohr^3]
      Maximum=    1.8061E+00  at reduced coord.    0.0000    0.5938    0.5556
      Minimum=    7.7476E-02  at reduced coord.    0.0000    0.0313    0.2444
   Integrated=    1.6000E+02
 ETOT 15  -537.69603716948    -6.350E-04 7.658E-04 4.128E-02
 scprqt: <Vxc>= -9.4578509E-01 hartree
 
 Pulay update with  7 previous iterations:
 mixing of old trial potential: alpha(m:m-4)=  -2.37       5.75       7.82      -6.88      -13.1
 scfcv_core: previous iteration took 01:29 [minutes]
 
 ITER STEP NUMBER    16
 vtorho: nnsclo_now=1, note that nnsclo,dbl_nnsclo,istep=0 0 16
mpirun: Forwarding signal 18 to job
