--------------------------------------------------------------------------
[[2499,1],1]: A high-performance Open MPI point-to-point messaging module
was unable to find any relevant network interfaces:

Module: OpenFabrics (openib)
  Host: abipy

Another transport will be used instead, although this may result in
lower performance.
--------------------------------------------------------------------------
  ABINIT 8.10.3
  
  Give name for formatted input file: 
trf1_3.in
  Give name for formatted output file:
trf1_3.out
  Give root name for generic input files:
trf1_3i
  Give root name for generic output files:
trf1_3o
  Give root name for generic temporary files:
trf1_3

--- !COMMENT
src_file: m_dtfil.F90
src_line: 1159
message: |
    Output file trf1_3.out
     already exists.
...


--- !COMMENT
src_file: m_dtfil.F90
src_line: 1183
message: |
    Renaming old trf1_3.out to trf1_3.out0001
...


.Version 8.10.3 of ABINIT 
.(MPI version, prepared for a x86_64_linux_gnu5.4 computer) 

.Copyright (C) 1998-2018 ABINIT group . 
 ABINIT comes with ABSOLUTELY NO WARRANTY.
 It is free software, and you are welcome to redistribute it
 under certain conditions (GNU General Public License,
 see ~abinit/COPYING or http://www.gnu.org/copyleft/gpl.txt).

 ABINIT is a project of the Universite Catholique de Louvain,
 Corning Inc. and other collaborators, see ~abinit/doc/developers/contributors.txt .
 Please read https://docs.abinit.org/theory/acknowledgments for suggested
 acknowledgments of the ABINIT effort.
 For more information, see https://www.abinit.org .

.Starting date : Tue 29 Oct 2019.
- ( at 13h58 )
  

 ++++++++++++++++++++++++++++++++++++++++++++++++++++++++++++++++++++++++++++++

 === Build Information === 
  Version       : 8.10.3
  Build target  : x86_64_linux_gnu5.4
  Build date    : 20191016

 === Compiler Suite === 
  C compiler       : gnu5.4
  C++ compiler     : gnu5.4
  Fortran compiler : gnu5.4
  CFLAGS           :  -g -O2 -mtune=native -march=native
  CXXFLAGS         :  -g -O2 -mtune=native -march=native
  FCFLAGS          :  -g -ffree-line-length-none  -fopenmp
  FC_LDFLAGS       : 

 === Optimizations === 
  Debug level        : basic
  Optimization level : standard
  Architecture       : unknown_unknown

 === Multicore === 
  Parallel build : yes
  Parallel I/O   : yes
  openMP support : yes
  GPU support    : no

 === Connectors / Fallbacks === 
  Connectors on : yes
  Fallbacks on  : yes
  DFT flavor    : none
  FFT flavor    : fftw3
  LINALG flavor : atlas
  MATH flavor   : none
  TIMER flavor  : abinit
  TRIO flavor   : netcdf

 === Experimental features === 
  Bindings            : @enable_bindings@
  Exports             : no
  GW double-precision : no

 ++++++++++++++++++++++++++++++++++++++++++++++++++++++++++++++++++++++++++++++


 ++++++++++++++++++++++++++++++++++++++++++++++++++++++++++++++++++++++++++++++
 Default optimizations:
   -O2 -mtune=native -march=native


 Optimizations for 43_ptgroups:
   -O0


 ++++++++++++++++++++++++++++++++++++++++++++++++++++++++++++++++++++++++++++++


 ++++++++++++++++++++++++++++++++++++++++++++++++++++++++++++++++++++++++++++++
 CPP options activated during the build:

                    CC_GNU                   CXX_GNU                    FC_GNU
 
 HAVE_FC_ALLOCATABLE_DT...             HAVE_FC_ASYNC         HAVE_FC_BACKTRACE
 
  HAVE_FC_COMMAND_ARGUMENT      HAVE_FC_COMMAND_LINE        HAVE_FC_CONTIGUOUS
 
           HAVE_FC_CPUTIME              HAVE_FC_EXIT             HAVE_FC_FLUSH
 
             HAVE_FC_GAMMA            HAVE_FC_GETENV   HAVE_FC_IEEE_EXCEPTIONS
 
          HAVE_FC_INT_QUAD             HAVE_FC_IOMSG     HAVE_FC_ISO_C_BINDING
 
  HAVE_FC_ISO_FORTRAN_2008        HAVE_FC_LONG_LINES        HAVE_FC_MOVE_ALLOC
 
           HAVE_FC_PRIVATE         HAVE_FC_PROTECTED         HAVE_FC_STREAM_IO
 
            HAVE_FC_SYSTEM                  HAVE_FFT            HAVE_FFT_FFTW3
 
              HAVE_FFT_MPI           HAVE_FFT_SERIAL          HAVE_FORTRAN2003
 
        HAVE_LIBPAW_ABINIT      HAVE_LIBTETRA_ABINIT               HAVE_LINALG
 
        HAVE_LINALG_SERIAL                  HAVE_MPI                 HAVE_MPI2
 
       HAVE_MPI_IALLREDUCE        HAVE_MPI_IALLTOALL       HAVE_MPI_IALLTOALLV
 
        HAVE_MPI_INTEGER16               HAVE_MPI_IO HAVE_MPI_TYPE_CREATE_S...
 
               HAVE_NETCDF           HAVE_NETCDF_MPI         HAVE_OMP_COLLAPSE
 
               HAVE_OPENMP             HAVE_OS_LINUX         HAVE_TIMER_ABINIT
 
              USE_MACROAVE                                                      
 ++++++++++++++++++++++++++++++++++++++++++++++++++++++++++++++++++++++++++++++

- input  file    -> trf1_3.in
- output file    -> trf1_3.out
- root for input  files -> trf1_3i
- root for output files -> trf1_3o


--- !WARNING
src_file: m_nctk.F90
src_line: 572
message: |
    netcdf lib does not support MPI-IO and: NetCDF: Parallel operation on file opened for non-parallel access
...

  Asked to delete not existent file: __TMP_FILE__

--- !WARNING
src_file: m_nctk.F90
src_line: 592
message: |
    The netcdf library does not support parallel IO, see message above
    Abinit won't be able to produce files in parallel e.g. when paral_kgb==1 is used.
    Action: install a netcdf4+HDF5 library with MPI-IO support.
...

-instrng: 83 lines of input have been read from file trf1_3.in


 Please give name of formatted atomic psp file
 iofn2 : for atom type 1, psp file is ../../../../../Psps_for_tests/13al.981214.fhi

 Please give name of formatted atomic psp file
 iofn2 : for atom type 2, psp file is ../../../../../Psps_for_tests/33as.pspnc
  read the values zionpsp=  3.0 , pspcod=   6 , lmax=   2
  read the values zionpsp=  5.0 , pspcod=   1 , lmax=   1

 inpspheads: deduce mpsang = 3, n1xccc = 2501.
 invars1 : treat image number: 1

 symlatt : the Bravais lattice is cF (face-centered cubic)
  xred   is defined in input file
 ingeo: takes atomic coordinates from input array xred

 symlatt : the Bravais lattice is cF (face-centered cubic)

 symlatt : the Bravais lattice is cF (face-centered cubic)
 symspgr : spgroup= 216  F-4 3 m   (=Td^2)
 symspgr : optical characteristics = isotropic
 ingeo: angdeg(1:3)=   60.00000000   60.00000000   60.00000000
 chkneu : initialized the occupation numbers for occopt=    1, spin-unpolarized or antiferromagnetic case :
  2.00  2.00  2.00  2.00
npfft, npband, npspinor and npkpt:     1    1    1    2
mpi_setup: mkmem  undefined in the input file.Use default mkmem  = nkpt
 mpi_setup: With nkpt_me=64 and mkmem  = 128, ground state wf handled in core.
 Resetting mkmem  to nkpt_me to save memory space.
mpi_setup: mkqmem undefined in the input file.Use default mkqmem = nkpt
 mpi_setup: With nkpt_me=64 and mkqmem = 128, ground state wf handled in core.
 Resetting mkqmem to nkpt_me to save memory space.
mpi_setup: mk1mem undefined in the input file.Use default mk1mem = nkpt
 mpi_setup: With nkpt_me=64 and mk1mem = 128, ground state wf handled in core.
 Resetting mk1mem to nkpt_me to save memory space.
 For input ecut=  3.000000E+00 best grid ngfft=      12      12      12
       max ecut=  3.156251E+00

 ==== FFT mesh ====
  FFT mesh divisions ........................    12   12   12
  Augmented FFT divisions ...................    13   13   12
  FFT algorithm .............................   312
  FFT cache size ............................    16
 getmpw: optimal value of mpw= 77
 getmpw: optimal value of mpw= 77

 Symmetries : space group F-4 3 m (#216); Bravais cF (face-center cubic)

 getdim_nloc : deduce lmnmax  =   9, lnmax  =   3,
                      lmnmaxso=   9, lnmaxso=   3.
 memorf : analysis of memory needs
================================================================================
 Values of the parameters that define the memory need of the present run (RF).
     intxc =       0      iscf =       7    lmnmax =       3     lnmax =       3
     mgfft =      12  mpssoang =       3    mqgrid =    3001     natom =       2
  nloc_mem =       1    nspden =       1   nspinor =       1    nsppol =       1
      nsym =      24    n1xccc =    2501    ntypat =       2    occopt =       1
   xclevel =       1
-    mband =           4        mffmem =           1         mkmem =          64
-   mkqmem =          64        mk1mem =          64           mpw =          77
      nfft =        1728          nkpt =         128
================================================================================
P This job should need less than                       2.348 Mbytes of memory.
  Rough estimation (10% accuracy) of disk space for files :
_ WF disk file :      0.604 Mbytes ; DEN or POT disk file :      0.015 Mbytes.
================================================================================

 Biggest array : cg(disk), with      0.3028 MBytes.
 memana : allocated an array of      0.303 Mbytes, for testing purposes.
 memana: allocated       2.348Mbytes, for testing purposes. 
 The job will continue.
--------------------------------------------------------------------------------
------------- Echo of variables that govern the present computation ------------
--------------------------------------------------------------------------------
-
- outvars: echo of selected default values                                      
-   iomode0 =  0 , fftalg0 =312 , wfoptalg0 =  0
-
- outvars: echo of global parameters not present in the input file              
-  max_nthreads =    1
-
 -outvars: echo values of preprocessed input variables --------
 
 These variables are accessible in NetCDF format (trf1_3o_OUT.nc)

            acell      1.0610000000E+01  1.0610000000E+01  1.0610000000E+01 Bohr
              amu      2.69815390E+01  7.49215900E+01
           diemac      9.00000000E+00
             ecut      3.00000000E+00 Hartree
-          fftalg         312
           irdwfk           1
              kpt      0.00000000E+00  0.00000000E+00 -1.25000000E-01
                       0.00000000E+00  0.00000000E+00 -3.75000000E-01
                       0.00000000E+00  1.25000000E-01 -2.50000000E-01
                       0.00000000E+00  2.50000000E-01 -1.25000000E-01
                       1.25000000E-01  0.00000000E+00 -2.50000000E-01
                       1.25000000E-01  1.25000000E-01 -1.25000000E-01
                       2.50000000E-01  0.00000000E+00 -1.25000000E-01
                       0.00000000E+00  1.25000000E-01  5.00000000E-01
                       0.00000000E+00  2.50000000E-01 -3.75000000E-01
                       0.00000000E+00  3.75000000E-01 -2.50000000E-01
                       0.00000000E+00  5.00000000E-01 -1.25000000E-01
                       1.25000000E-01  0.00000000E+00  5.00000000E-01
                       1.25000000E-01  1.25000000E-01 -3.75000000E-01
                       1.25000000E-01  2.50000000E-01 -2.50000000E-01
                       1.25000000E-01  3.75000000E-01 -1.25000000E-01
                       2.50000000E-01  0.00000000E+00 -3.75000000E-01
                       2.50000000E-01  1.25000000E-01 -2.50000000E-01
                       2.50000000E-01  2.50000000E-01 -1.25000000E-01
                       3.75000000E-01  0.00000000E+00 -2.50000000E-01
                       3.75000000E-01  1.25000000E-01 -1.25000000E-01
                       5.00000000E-01  0.00000000E+00 -1.25000000E-01
                       0.00000000E+00  1.25000000E-01  2.50000000E-01
                       0.00000000E+00  2.50000000E-01  3.75000000E-01
                       0.00000000E+00  3.75000000E-01  5.00000000E-01
                       0.00000000E+00  5.00000000E-01 -3.75000000E-01
                       0.00000000E+00 -3.75000000E-01 -2.50000000E-01
                       0.00000000E+00 -2.50000000E-01 -1.25000000E-01
                       1.25000000E-01  0.00000000E+00  2.50000000E-01
                       1.25000000E-01  1.25000000E-01  3.75000000E-01
                       1.25000000E-01  2.50000000E-01  5.00000000E-01
                       1.25000000E-01  3.75000000E-01 -3.75000000E-01
                       1.25000000E-01  5.00000000E-01 -2.50000000E-01
                       1.25000000E-01 -3.75000000E-01 -1.25000000E-01
                       2.50000000E-01  0.00000000E+00  3.75000000E-01
                       2.50000000E-01  1.25000000E-01  5.00000000E-01
                       2.50000000E-01  2.50000000E-01 -3.75000000E-01
                       2.50000000E-01  3.75000000E-01 -2.50000000E-01
                       2.50000000E-01  5.00000000E-01 -1.25000000E-01
                       3.75000000E-01  0.00000000E+00  5.00000000E-01
                       3.75000000E-01  1.25000000E-01 -3.75000000E-01
                       3.75000000E-01  2.50000000E-01 -2.50000000E-01
                       3.75000000E-01  3.75000000E-01 -1.25000000E-01
                       5.00000000E-01  0.00000000E+00 -3.75000000E-01
                       5.00000000E-01  1.25000000E-01 -2.50000000E-01
                       5.00000000E-01  2.50000000E-01 -1.25000000E-01
                      -3.75000000E-01  0.00000000E+00 -2.50000000E-01
                      -3.75000000E-01  1.25000000E-01 -1.25000000E-01
                      -2.50000000E-01  0.00000000E+00 -1.25000000E-01
                       0.00000000E+00  1.25000000E-01  0.00000000E+00
                       1.25000000E-01  0.00000000E+00  0.00000000E+00
                       outvar_i_n : Printing only first  50 k-points.
           kptopt           2
         kptrlatt       -4    4    4      4   -4    4      4    4   -4
          kptrlen      4.24400000E+01
P           mkmem          64
P          mkqmem          64
P          mk1mem          64
            natom           2
            nband           4
            ngfft          12      12      12
             nkpt         128
             nqpt           1
            nstep          15
             nsym          24
           ntypat           2
              occ      2.000000  2.000000  2.000000  2.000000
        optdriver           1
            rfdir           1       0       0
           rfphon           1
            rprim      0.0000000000E+00  5.0000000000E-01  5.0000000000E-01
                       5.0000000000E-01  0.0000000000E+00  5.0000000000E-01
                       5.0000000000E-01  5.0000000000E-01  0.0000000000E+00
           shiftk      5.00000000E-01  5.00000000E-01  5.00000000E-01
          spgroup         216
           symrel      1  0  0   0  1  0   0  0  1       0 -1  1   0 -1  0   1 -1  0
                      -1  0  0  -1  0  1  -1  1  0       0  1 -1   1  0 -1   0  0 -1
                      -1  0  0  -1  1  0  -1  0  1       0 -1  1   1 -1  0   0 -1  0
                       1  0  0   0  0  1   0  1  0       0  1 -1   0  0 -1   1  0 -1
                      -1  0  1  -1  1  0  -1  0  0       0 -1  0   1 -1  0   0 -1  1
                       1  0 -1   0  0 -1   0  1 -1       0  1  0   0  0  1   1  0  0
                       1  0 -1   0  1 -1   0  0 -1       0 -1  0   0 -1  1   1 -1  0
                      -1  0  1  -1  0  0  -1  1  0       0  1  0   1  0  0   0  0  1
                       0  0 -1   0  1 -1   1  0 -1       1 -1  0   0 -1  1   0 -1  0
                       0  0  1   1  0  0   0  1  0      -1  1  0  -1  0  0  -1  0  1
                       0  0  1   0  1  0   1  0  0       1 -1  0   0 -1  0   0 -1  1
                       0  0 -1   1  0 -1   0  1 -1      -1  1  0  -1  0  1  -1  0  0
           tolvrs      1.00000000E-08
            typat      1  2
              wtk        0.00781    0.00781    0.00781    0.00781    0.00781    0.00781
                         0.00781    0.00781    0.00781    0.00781    0.00781    0.00781
                         0.00781    0.00781    0.00781    0.00781    0.00781    0.00781
                         0.00781    0.00781    0.00781    0.00781    0.00781    0.00781
                         0.00781    0.00781    0.00781    0.00781    0.00781    0.00781
                         0.00781    0.00781    0.00781    0.00781    0.00781    0.00781
                         0.00781    0.00781    0.00781    0.00781    0.00781    0.00781
                         0.00781    0.00781    0.00781    0.00781    0.00781    0.00781
                         0.00781    0.00781
                       outvars : Printing only first  50 k-points.
           xangst      0.0000000000E+00  0.0000000000E+00  0.0000000000E+00
                       1.4036425458E+00  1.4036425458E+00  1.4036425458E+00
            xcart      0.0000000000E+00  0.0000000000E+00  0.0000000000E+00
                       2.6525000000E+00  2.6525000000E+00  2.6525000000E+00
             xred      0.0000000000E+00  0.0000000000E+00  0.0000000000E+00
                       2.5000000000E-01  2.5000000000E-01  2.5000000000E-01
            znucl       13.00000   33.00000

================================================================================

 chkinp: Checking input parameters for consistency.
 DATA TYPE INFORMATION: 
 REAL:      Data type name: REAL(DP) 
            Kind value:      8
            Precision:      15
            Smallest nonnegligible quantity relative to 1:  0.22204460E-15
            Smallest positive number:                       0.22250739-307
            Largest representable number:                   0.17976931+309
 INTEGER:   Data type name: INTEGER(default) 
            Kind value: 4
            Bit size:   32
            Largest representable number: 2147483647
 LOGICAL:   Data type name: LOGICAL 
            Kind value: 4
 CHARACTER: Data type name: CHARACTER             Kind value: 1

  ==== OpenMP parallelism is ON ====
- Max_threads:       1
- Num_threads:       1
- Num_procs:         2
- Dynamic:           F
- Nested:            F
 
  ==== Using MPI-2 specifications ==== 
  MPI-IO support is ON
  xmpi_tag_ub ................   2147483647
  xmpi_bsize_ch ..............            1
  xmpi_bsize_int .............            4
  xmpi_bsize_sp ..............            4
  xmpi_bsize_dp ..............            8
  xmpi_bsize_spc .............            8
  xmpi_bsize_dpc .............           16
  xmpio_bsize_frm ............            4
  xmpi_address_kind ..........            8
  xmpi_offset_kind ...........            8
  MPI_WTICK ..................    9.9999999999999995E-007

================================================================================
== DATASET  1 ==================================================================
-   nproc =    2


--- !COMMENT
src_file: m_xgScalapack.F90
src_line: 251
message: |
    xgScalapack in auto mode
...


 getdim_nloc : deduce lmnmax  =   9, lnmax  =   3,
                      lmnmaxso=   9, lnmaxso=   3.
 Exchange-correlation functional for the present dataset will be:
  LDA: new Teter (4/93) with spin-polarized option - ixc=1
 Citation for XC functional:
  S. Goedecker, M. Teter, J. Huetter, PRB 54, 1703 (1996)

 Unit cell volume ucvol=  2.9859750E+02 bohr^3
 Angles (23,13,12)=  6.00000000E+01  6.00000000E+01  6.00000000E+01 degrees
 setup1 : take into account q-point for computing boxcut.

 getcut: wavevector=  0.0000  0.0000  0.0000  ngfft=  12  12  12
         ecut(hartree)=      3.000   => boxcut(ratio)=   2.05142
 kpgio: loop on k-points done in parallel
- pspini: atom type   1  psp file is ../../../../../Psps_for_tests/13al.981214.fhi
- pspatm: opening atomic psp file    ../../../../../Psps_for_tests/13al.981214.fhi
- Aluminum, fhi98PP : Hamann-type, LDA CA PerdewWang, l=2 local
- 13.00000   3.00000    981214                znucl, zion, pspdat
    6    7    2    2       493   0.00000      pspcod,pspxc,lmax,lloc,mmax,r2well

--- !WARNING
src_file: m_pspini.F90
src_line: 1088
message: |
    Pseudopotential file pspxc= 7,
    not equal to input ixc= 1.
    These parameters must agree to get the same xc 
    in ABINIT code as in psp construction.
    Action: check psp design or input file.
    Assume experienced user. Execution will continue.
...

  No XC core correction.
  1.024700          amesh (Hamman grid)
  pspatm : epsatm=    1.36305739
         --- l  ekb(1:nproj) -->
             0    1.768744
             1    0.900554
 pspatm: atomic psp has been read  and splines computed

- pspini: atom type   2  psp file is ../../../../../Psps_for_tests/33as.pspnc
- pspatm: opening atomic psp file    ../../../../../Psps_for_tests/33as.pspnc
-  Troullier-Martins psp for element  As        Thu Oct 27 17:37:14 EDT 1994
- 33.00000   5.00000    940714                znucl, zion, pspdat
    1    1    1    1      2001   0.00000      pspcod,pspxc,lmax,lloc,mmax,r2well
    0   4.772  10.829    1   2.5306160        l,e99.0,e99.9,nproj,rcpsp
   0.00000000   0.00000000   0.00000000   0.00000000     rms, ekb1, ekb2, epsatm
    1   2.745   5.580    0   2.5306160        l,e99.0,e99.9,nproj,rcpsp
   0.00000000   0.00000000   0.00000000   0.00000000     rms, ekb1, ekb2, epsatm
    2.05731715564010    0.36322996461007    2.76014815959125   rchrg,fchrg,qchrg
  pspatm : epsatm=   27.20579911
         --- l  ekb(1:nproj) -->
             0    0.838751
 pspatm: atomic psp has been read  and splines computed

   2.28550852E+02                                ecore*ucvol(ha*bohr**3)
 ==== Info on pseudopotentials ====
  Norm-conserving pseudopotentials
  Number of pseudopotentials ..    2
  Number of types of atoms   ..    2
  Scalar calculation (no spin-orbit term)
  Nonlocal part applied using Legendre polynomials
  Max number of non-local projectors over l and type   1
  Highest angular momentum +1 .......   3
  Max number of (l,n)   components ..   3
  Max number of (l,m,n) components ..   3

 Pseudo-Core Charge Info: 
   Number of radial points for pseudo-core charge .. 2501
   XC core-correction treatment (optnlxccc) ........    1
   Radius for pseudo-core charge for each type ..... 

  - Atom type    1 has pseudo-core radius ..  0.0000
  - Atom type    2 has pseudo-core radius ..  6.1720

 Info on the Q-grid used for form factors in spline form: 
   Number of q-points for radial functions ffspl ..   3001
   Number of q-points for vlspl ...................   3001
   vloc is computed in Reciprocal Space
   model core charge treated in real-space

  XC functional for type 1 is 7
  Pseudo valence available: no
  XC functional for type 2 is 1
  Pseudo valence available: no

inwffil: examining the header of disk file trf1_3i_WFK

================================================================================

          - hdr_check: checking restart file header for consistency -


        current calculation                         restart file
        -------------------                         ------------

  calculation expects a wf_planewave    |  input file contains a wf_planewave
. ABINIT  code version 8.10.3           |  ABINIT  code version 8.10.3
. date 20191029 bantot  512 natom    2  |  date 20191028 bantot   40 natom    2
  nkpt 128 nsym 24 ngfft  12,  12,  12  |  nkpt  10 nsym 24 ngfft  12,  12,  12
  ntypat  2 ecut_eff   3.0000000        |  ntypat  2 ecut_eff   3.0000000
  usepaw  0                             |  usepaw  0
  usewvl  0                             |  usewvl  0
  rprimd:                               |  rprimd:
     0.0000000   5.3050000   5.3050000  |     0.0000000   5.3050000   5.3050000
     5.3050000   0.0000000   5.3050000  |     5.3050000   0.0000000   5.3050000
     5.3050000   5.3050000   0.0000000  |     5.3050000   5.3050000   0.0000000

--- !WARNING
src_file: m_hdr.F90
src_line: 4054
message: |
    input nkpt=128 not equal disk file nkpt=10
...

  symafm:                               |  symafm:
    1  1  1  1  1  1  1  1  1  1  1  1  |    1  1  1  1  1  1  1  1  1  1  1  1
    1  1  1  1  1  1  1  1  1  1  1  1  |    1  1  1  1  1  1  1  1  1  1  1  1
  symrel:                               |  symrel:
    1  0  0  0  1  0  0  0  1           |    1  0  0  0  1  0  0  0  1
    0 -1  1  0 -1  0  1 -1  0           |    0 -1  1  0 -1  0  1 -1  0
   -1  0  0 -1  0  1 -1  1  0           |   -1  0  0 -1  0  1 -1  1  0
    0  1 -1  1  0 -1  0  0 -1           |    0  1 -1  1  0 -1  0  0 -1
   -1  0  0 -1  1  0 -1  0  1           |   -1  0  0 -1  1  0 -1  0  1
    0 -1  1  1 -1  0  0 -1  0           |    0 -1  1  1 -1  0  0 -1  0
    1  0  0  0  0  1  0  1  0           |    1  0  0  0  0  1  0  1  0
    0  1 -1  0  0 -1  1  0 -1           |    0  1 -1  0  0 -1  1  0 -1
   -1  0  1 -1  1  0 -1  0  0           |   -1  0  1 -1  1  0 -1  0  0
    0 -1  0  1 -1  0  0 -1  1           |    0 -1  0  1 -1  0  0 -1  1
    1  0 -1  0  0 -1  0  1 -1           |    1  0 -1  0  0 -1  0  1 -1
    0  1  0  0  0  1  1  0  0           |    0  1  0  0  0  1  1  0  0
    1  0 -1  0  1 -1  0  0 -1           |    1  0 -1  0  1 -1  0  0 -1
    0 -1  0  0 -1  1  1 -1  0           |    0 -1  0  0 -1  1  1 -1  0
   -1  0  1 -1  0  0 -1  1  0           |   -1  0  1 -1  0  0 -1  1  0
    0  1  0  1  0  0  0  0  1           |    0  1  0  1  0  0  0  0  1
    0  0 -1  0  1 -1  1  0 -1           |    0  0 -1  0  1 -1  1  0 -1
    1 -1  0  0 -1  1  0 -1  0           |    1 -1  0  0 -1  1  0 -1  0
    0  0  1  1  0  0  0  1  0           |    0  0  1  1  0  0  0  1  0
   -1  1  0 -1  0  0 -1  0  1           |   -1  1  0 -1  0  0 -1  0  1
    0  0  1  0  1  0  1  0  0           |    0  0  1  0  1  0  1  0  0
    1 -1  0  0 -1  0  0 -1  1           |    1 -1  0  0 -1  0  0 -1  1
    0  0 -1  1  0 -1  0  1 -1           |    0  0 -1  1  0 -1  0  1 -1
   -1  1  0 -1  0  1 -1  0  0           |   -1  1  0 -1  0  1 -1  0  0
  typat:                                |  typat:
    1  2                                |    1  2
  so_psp  :                             |  so_psp  :
    1  1                                |    1  1

--- !WARNING
src_file: m_hdr.F90
src_line: 4300
message: |
    input kptopt= 2  /= disk file kptopt= 1
...

  tnons:                                |  tnons:
     0.0000000   0.0000000   0.0000000  |     0.0000000   0.0000000   0.0000000
     0.0000000   0.0000000   0.0000000  |     0.0000000   0.0000000   0.0000000
     0.0000000   0.0000000   0.0000000  |     0.0000000   0.0000000   0.0000000
     0.0000000   0.0000000   0.0000000  |     0.0000000   0.0000000   0.0000000
     0.0000000   0.0000000   0.0000000  |     0.0000000   0.0000000   0.0000000
     0.0000000   0.0000000   0.0000000  |     0.0000000   0.0000000   0.0000000
     0.0000000   0.0000000   0.0000000  |     0.0000000   0.0000000   0.0000000
     0.0000000   0.0000000   0.0000000  |     0.0000000   0.0000000   0.0000000
     0.0000000   0.0000000   0.0000000  |     0.0000000   0.0000000   0.0000000
     0.0000000   0.0000000   0.0000000  |     0.0000000   0.0000000   0.0000000
     0.0000000   0.0000000   0.0000000  |     0.0000000   0.0000000   0.0000000
     0.0000000   0.0000000   0.0000000  |     0.0000000   0.0000000   0.0000000
     0.0000000   0.0000000   0.0000000  |     0.0000000   0.0000000   0.0000000
     0.0000000   0.0000000   0.0000000  |     0.0000000   0.0000000   0.0000000
     0.0000000   0.0000000   0.0000000  |     0.0000000   0.0000000   0.0000000
     0.0000000   0.0000000   0.0000000  |     0.0000000   0.0000000   0.0000000
     0.0000000   0.0000000   0.0000000  |     0.0000000   0.0000000   0.0000000
     0.0000000   0.0000000   0.0000000  |     0.0000000   0.0000000   0.0000000
     0.0000000   0.0000000   0.0000000  |     0.0000000   0.0000000   0.0000000
     0.0000000   0.0000000   0.0000000  |     0.0000000   0.0000000   0.0000000
     0.0000000   0.0000000   0.0000000  |     0.0000000   0.0000000   0.0000000
     0.0000000   0.0000000   0.0000000  |     0.0000000   0.0000000   0.0000000
     0.0000000   0.0000000   0.0000000  |     0.0000000   0.0000000   0.0000000
     0.0000000   0.0000000   0.0000000  |     0.0000000   0.0000000   0.0000000
   znucl:                               |   znucl:
   13.00 33.00                          |   13.00 33.00
  pseudopotential atom type  1:         |  pseudopotential atom type  1:
  pspso   0 pspxc   7                   |  pspso   0 pspxc   7
  pspdat 981214 pspcod    6 zion   3.0  |  pspdat 981214 pspcod    6 zion   3.0
  pseudopotential atom type  2:         |  pseudopotential atom type  2:
  pspso   0 pspxc   1                   |  pspso   0 pspxc   1
  pspdat 940714 pspcod    1 zion   5.0  |  pspdat 940714 pspcod    1 zion   5.0
  xred:                                 |  xred:
     0.0000000   0.0000000   0.0000000  |     0.0000000   0.0000000   0.0000000
     0.2500000   0.2500000   0.2500000  |     0.2500000   0.2500000   0.2500000

--- !WARNING
src_file: m_hdr.F90
src_line: 4595
message: |
    Restart of self-consistent calculation need translated wavefunctions.
...

  Indeed, critical differences between current calculation and
  restart file have been detected in:
        * the number, position, or weight of k-points
        * the format of wavefunctions (istwfk)
================================================================================
-inwffil : will read wavefunctions from disk file trf1_3i_WFK
 initwf: disk file gives npw= 65 nband= 4 for kpt number= 1
 initwf: 4 bands have been initialized from disk
 initwf: disk file gives npw= 74 nband= 4 for kpt number= 2
 initwf: 4 bands have been initialized from disk
 initwf: disk file gives npw= 74 nband= 4 for kpt number= 3
 initwf: 4 bands have been initialized from disk
 initwf: disk file gives npw= 69 nband= 4 for kpt number= 4
 initwf: 4 bands have been initialized from disk
 initwf: disk file gives npw= 74 nband= 4 for kpt number= 5
 initwf: 4 bands have been initialized from disk
 initwf: disk file gives npw= 76 nband= 4 for kpt number= 6
 initwf: 4 bands have been initialized from disk
 initwf: disk file gives npw= 76 nband= 4 for kpt number= 7
 initwf: 4 bands have been initialized from disk
 initwf: disk file gives npw= 77 nband= 4 for kpt number= 8
 initwf: 4 bands have been initialized from disk
 initwf: disk file gives npw= 76 nband= 4 for kpt number= 9
 initwf: 4 bands have been initialized from disk
 initwf: disk file gives npw= 75 nband= 4 for kpt number= 10
 initwf: 4 bands have been initialized from disk
- newkpt: read input wf with ikpt,npw=   1      65, make ikpt,npw=   1      65
- newkpt: read input wf with ikpt,npw=   2      74, make ikpt,npw=   2      74
- newkpt: read input wf with ikpt,npw=   3      74, make ikpt,npw=   3      74
- newkpt: read input wf with ikpt,npw=   3      74, make ikpt,npw=   4      74
- newkpt: read input wf with ikpt,npw=   3      74, make ikpt,npw=   5      74
- newkpt: read input wf with ikpt,npw=   4      69, make ikpt,npw=   6      69
- newkpt: read input wf with ikpt,npw=   3      74, make ikpt,npw=   7      74
- newkpt: read input wf with ikpt,npw=   5      74, make ikpt,npw=   8      74
- newkpt: read input wf with ikpt,npw=   6      76, make ikpt,npw=   9      76
- newkpt: read input wf with ikpt,npw=   6      76, make ikpt,npw=  10      76
- newkpt: read input wf with ikpt,npw=   5      74, make ikpt,npw=  11      74
- newkpt: read input wf with ikpt,npw=   5      74, make ikpt,npw=  12      74
- newkpt: read input wf with ikpt,npw=   5      74, make ikpt,npw=  13      74
- newkpt: read input wf with ikpt,npw=   7      76, make ikpt,npw=  14      76
- newkpt: read input wf with ikpt,npw=   7      76, make ikpt,npw=  15      76
- newkpt: read input wf with ikpt,npw=   6      76, make ikpt,npw=  16      76
- newkpt: read input wf with ikpt,npw=   7      76, make ikpt,npw=  17      76
- newkpt: read input wf with ikpt,npw=   8      77, make ikpt,npw=  18      77
- newkpt: read input wf with ikpt,npw=   6      76, make ikpt,npw=  19      76
- newkpt: read input wf with ikpt,npw=   7      76, make ikpt,npw=  20      76
- newkpt: read input wf with ikpt,npw=   5      74, make ikpt,npw=  21      74
- newkpt: read input wf with ikpt,npw=   4      69, make ikpt,npw=  22      69
- newkpt: read input wf with ikpt,npw=   8      77, make ikpt,npw=  23      77
- newkpt: read input wf with ikpt,npw=   9      76, make ikpt,npw=  24      76
- newkpt: read input wf with ikpt,npw=   9      76, make ikpt,npw=  25      76
- newkpt: read input wf with ikpt,npw=   8      77, make ikpt,npw=  26      77
- newkpt: read input wf with ikpt,npw=   4      69, make ikpt,npw=  27      69
- newkpt: read input wf with ikpt,npw=   4      69, make ikpt,npw=  28      69
- newkpt: read input wf with ikpt,npw=   3      74, make ikpt,npw=  29      74
- newkpt: read input wf with ikpt,npw=   7      76, make ikpt,npw=  30      76
- newkpt: read input wf with ikpt,npw=  10      75, make ikpt,npw=  31      75
- newkpt: read input wf with ikpt,npw=  10      75, make ikpt,npw=  32      75
- newkpt: read input wf with ikpt,npw=   7      76, make ikpt,npw=  33      76
- newkpt: read input wf with ikpt,npw=   8      77, make ikpt,npw=  34      77
- newkpt: read input wf with ikpt,npw=   7      76, make ikpt,npw=  35      76
- newkpt: read input wf with ikpt,npw=   6      76, make ikpt,npw=  36      76
- newkpt: read input wf with ikpt,npw=  10      75, make ikpt,npw=  37      75
- newkpt: read input wf with ikpt,npw=  10      75, make ikpt,npw=  38      75
- newkpt: read input wf with ikpt,npw=   9      76, make ikpt,npw=  39      76
- newkpt: read input wf with ikpt,npw=  10      75, make ikpt,npw=  40      75
- newkpt: read input wf with ikpt,npw=  10      75, make ikpt,npw=  41      75
- newkpt: read input wf with ikpt,npw=   9      76, make ikpt,npw=  42      76
- newkpt: read input wf with ikpt,npw=   9      76, make ikpt,npw=  43      76
- newkpt: read input wf with ikpt,npw=  10      75, make ikpt,npw=  44      75
- newkpt: read input wf with ikpt,npw=  10      75, make ikpt,npw=  45      75
- newkpt: read input wf with ikpt,npw=   8      77, make ikpt,npw=  46      77
- newkpt: read input wf with ikpt,npw=   7      76, make ikpt,npw=  47      76
- newkpt: read input wf with ikpt,npw=   4      69, make ikpt,npw=  48      69
- newkpt: read input wf with ikpt,npw=   1      65, make ikpt,npw=  49      65
- newkpt: read input wf with ikpt,npw=   1      65, make ikpt,npw=  50      65
- newkpt : prtvol=0 or 1, do not print more k-points.

 respfn : eigen0 array

 getcut: wavevector=  0.0000  0.0000  0.0000  ngfft=  12  12  12
         ecut(hartree)=      3.000   => boxcut(ratio)=   2.05142
mkrho: echo density (plane-wave part only)
 Total charge density [el/Bohr^3]
      Maximum=    9.2541E-02  at reduced coord.    0.1667    0.1667    0.5000
      Minimum=    2.9515E-03  at reduced coord.    0.7500    0.7500    0.7500
   Integrated=    8.0000E+00

 ==> Calculation of the frozen part of the second order derivatives, this can take some time...


 ==> Calculation of the frozen part of the second order derivative done


 ==>  initialize data related to q vector <== 

 respfn : the norm of the phonon wavelength (as input) was small (<1.d-7).
  q has been set exactly to (0 0 0)
 The list of irreducible perturbations for this q vector is:
    1)    idir= 1    ipert=   1

================================================================================
 Real(R)+Recip(G) space primitive vectors, cartesian coordinates (Bohr,Bohr^-1):
 R(1)=  0.0000000  5.3050000  5.3050000  G(1)= -0.0942507  0.0942507  0.0942507
 R(2)=  5.3050000  0.0000000  5.3050000  G(2)=  0.0942507 -0.0942507  0.0942507
 R(3)=  5.3050000  5.3050000  0.0000000  G(3)=  0.0942507  0.0942507 -0.0942507
 Unit cell volume ucvol=  2.9859750E+02 bohr^3
 Unit cell volume ucvol=  2.9859750E+02 bohr^3
 Angles (23,13,12)=  6.00000000E+01  6.00000000E+01  6.00000000E+01 degrees
 Angles (23,13,12)=  6.00000000E+01  6.00000000E+01  6.00000000E+01 degrees

 getcut: wavevector=  0.0000  0.0000  0.0000  ngfft=  12  12  12
         ecut(hartree)=      3.000   => boxcut(ratio)=   2.05142

--------------------------------------------------------------------------------
 Perturbation wavevector (in red.coord.)   0.000000  0.000000  0.000000
 Perturbation : displacement of atom   1   along direction   1
 littlegroup_pert : found     2 symmetries that leave the perturbation invariant :
   1   0   0   0   1   0   0   0   1
   1   0   0   0   0   1   0   1   0
 symkpt : the number of k-points, thanks to the symmetries,
 is reduced to    72 .
 getmpw: optimal value of mpw= 77
 kpgio: loop on k-points done in parallel
inwffil: examining the header of disk file trf1_3i_WFK

================================================================================

          - hdr_check: checking restart file header for consistency -


        current calculation                         restart file
        -------------------                         ------------

  calculation expects a wf_planewave    |  input file contains a wf_planewave
. ABINIT  code version 8.10.3           |  ABINIT  code version 8.10.3
. date 20191029 bantot  288 natom    2  |  date 20191028 bantot   40 natom    2
  nkpt  72 nsym 24 ngfft  12,  12,  12  |  nkpt  10 nsym 24 ngfft  12,  12,  12
  ntypat  2 ecut_eff   3.0000000        |  ntypat  2 ecut_eff   3.0000000
  usepaw  0                             |  usepaw  0
  usewvl  0                             |  usewvl  0
  rprimd:                               |  rprimd:
     0.0000000   5.3050000   5.3050000  |     0.0000000   5.3050000   5.3050000
     5.3050000   0.0000000   5.3050000  |     5.3050000   0.0000000   5.3050000
     5.3050000   5.3050000   0.0000000  |     5.3050000   5.3050000   0.0000000

--- !WARNING
src_file: m_hdr.F90
src_line: 4054
message: |
    input nkpt=72 not equal disk file nkpt=10
...

  symafm:                               |  symafm:
    1  1  1  1  1  1  1  1  1  1  1  1  |    1  1  1  1  1  1  1  1  1  1  1  1
    1  1  1  1  1  1  1  1  1  1  1  1  |    1  1  1  1  1  1  1  1  1  1  1  1
  symrel:                               |  symrel:
    1  0  0  0  1  0  0  0  1           |    1  0  0  0  1  0  0  0  1
    0 -1  1  0 -1  0  1 -1  0           |    0 -1  1  0 -1  0  1 -1  0
   -1  0  0 -1  0  1 -1  1  0           |   -1  0  0 -1  0  1 -1  1  0
    0  1 -1  1  0 -1  0  0 -1           |    0  1 -1  1  0 -1  0  0 -1
   -1  0  0 -1  1  0 -1  0  1           |   -1  0  0 -1  1  0 -1  0  1
    0 -1  1  1 -1  0  0 -1  0           |    0 -1  1  1 -1  0  0 -1  0
    1  0  0  0  0  1  0  1  0           |    1  0  0  0  0  1  0  1  0
    0  1 -1  0  0 -1  1  0 -1           |    0  1 -1  0  0 -1  1  0 -1
   -1  0  1 -1  1  0 -1  0  0           |   -1  0  1 -1  1  0 -1  0  0
    0 -1  0  1 -1  0  0 -1  1           |    0 -1  0  1 -1  0  0 -1  1
    1  0 -1  0  0 -1  0  1 -1           |    1  0 -1  0  0 -1  0  1 -1
    0  1  0  0  0  1  1  0  0           |    0  1  0  0  0  1  1  0  0
    1  0 -1  0  1 -1  0  0 -1           |    1  0 -1  0  1 -1  0  0 -1
    0 -1  0  0 -1  1  1 -1  0           |    0 -1  0  0 -1  1  1 -1  0
   -1  0  1 -1  0  0 -1  1  0           |   -1  0  1 -1  0  0 -1  1  0
    0  1  0  1  0  0  0  0  1           |    0  1  0  1  0  0  0  0  1
    0  0 -1  0  1 -1  1  0 -1           |    0  0 -1  0  1 -1  1  0 -1
    1 -1  0  0 -1  1  0 -1  0           |    1 -1  0  0 -1  1  0 -1  0
    0  0  1  1  0  0  0  1  0           |    0  0  1  1  0  0  0  1  0
   -1  1  0 -1  0  0 -1  0  1           |   -1  1  0 -1  0  0 -1  0  1
    0  0  1  0  1  0  1  0  0           |    0  0  1  0  1  0  1  0  0
    1 -1  0  0 -1  0  0 -1  1           |    1 -1  0  0 -1  0  0 -1  1
    0  0 -1  1  0 -1  0  1 -1           |    0  0 -1  1  0 -1  0  1 -1
   -1  1  0 -1  0  1 -1  0  0           |   -1  1  0 -1  0  1 -1  0  0
  typat:                                |  typat:
    1  2                                |    1  2
  so_psp  :                             |  so_psp  :
    1  1                                |    1  1

--- !WARNING
src_file: m_hdr.F90
src_line: 4300
message: |
    input kptopt= 2  /= disk file kptopt= 1
...

  tnons:                                |  tnons:
     0.0000000   0.0000000   0.0000000  |     0.0000000   0.0000000   0.0000000
     0.0000000   0.0000000   0.0000000  |     0.0000000   0.0000000   0.0000000
     0.0000000   0.0000000   0.0000000  |     0.0000000   0.0000000   0.0000000
     0.0000000   0.0000000   0.0000000  |     0.0000000   0.0000000   0.0000000
     0.0000000   0.0000000   0.0000000  |     0.0000000   0.0000000   0.0000000
     0.0000000   0.0000000   0.0000000  |     0.0000000   0.0000000   0.0000000
     0.0000000   0.0000000   0.0000000  |     0.0000000   0.0000000   0.0000000
     0.0000000   0.0000000   0.0000000  |     0.0000000   0.0000000   0.0000000
     0.0000000   0.0000000   0.0000000  |     0.0000000   0.0000000   0.0000000
     0.0000000   0.0000000   0.0000000  |     0.0000000   0.0000000   0.0000000
     0.0000000   0.0000000   0.0000000  |     0.0000000   0.0000000   0.0000000
     0.0000000   0.0000000   0.0000000  |     0.0000000   0.0000000   0.0000000
     0.0000000   0.0000000   0.0000000  |     0.0000000   0.0000000   0.0000000
     0.0000000   0.0000000   0.0000000  |     0.0000000   0.0000000   0.0000000
     0.0000000   0.0000000   0.0000000  |     0.0000000   0.0000000   0.0000000
     0.0000000   0.0000000   0.0000000  |     0.0000000   0.0000000   0.0000000
     0.0000000   0.0000000   0.0000000  |     0.0000000   0.0000000   0.0000000
     0.0000000   0.0000000   0.0000000  |     0.0000000   0.0000000   0.0000000
     0.0000000   0.0000000   0.0000000  |     0.0000000   0.0000000   0.0000000
     0.0000000   0.0000000   0.0000000  |     0.0000000   0.0000000   0.0000000
     0.0000000   0.0000000   0.0000000  |     0.0000000   0.0000000   0.0000000
     0.0000000   0.0000000   0.0000000  |     0.0000000   0.0000000   0.0000000
     0.0000000   0.0000000   0.0000000  |     0.0000000   0.0000000   0.0000000
     0.0000000   0.0000000   0.0000000  |     0.0000000   0.0000000   0.0000000
   znucl:                               |   znucl:
   13.00 33.00                          |   13.00 33.00
  pseudopotential atom type  1:         |  pseudopotential atom type  1:
  pspso   0 pspxc   7                   |  pspso   0 pspxc   7
  pspdat 981214 pspcod    6 zion   3.0  |  pspdat 981214 pspcod    6 zion   3.0
  pseudopotential atom type  2:         |  pseudopotential atom type  2:
  pspso   0 pspxc   1                   |  pspso   0 pspxc   1
  pspdat 940714 pspcod    1 zion   5.0  |  pspdat 940714 pspcod    1 zion   5.0
  xred:                                 |  xred:
     0.0000000   0.0000000   0.0000000  |     0.0000000   0.0000000   0.0000000
     0.2500000   0.2500000   0.2500000  |     0.2500000   0.2500000   0.2500000

--- !WARNING
src_file: m_hdr.F90
src_line: 4595
message: |
    Restart of self-consistent calculation need translated wavefunctions.
...

  Indeed, critical differences between current calculation and
  restart file have been detected in:
        * the number, position, or weight of k-points
        * the format of wavefunctions (istwfk)
================================================================================
-inwffil : will read wavefunctions from disk file trf1_3i_WFK
 initwf: disk file gives npw= 65 nband= 4 for kpt number= 1
 initwf: 4 bands have been initialized from disk
 initwf: disk file gives npw= 74 nband= 4 for kpt number= 2
 initwf: 4 bands have been initialized from disk
 initwf: disk file gives npw= 74 nband= 4 for kpt number= 3
 initwf: 4 bands have been initialized from disk
 initwf: disk file gives npw= 69 nband= 4 for kpt number= 4
 initwf: 4 bands have been initialized from disk
 initwf: disk file gives npw= 74 nband= 4 for kpt number= 5
 initwf: 4 bands have been initialized from disk
 initwf: disk file gives npw= 76 nband= 4 for kpt number= 6
 initwf: 4 bands have been initialized from disk
 initwf: disk file gives npw= 76 nband= 4 for kpt number= 7
 initwf: 4 bands have been initialized from disk
 initwf: disk file gives npw= 77 nband= 4 for kpt number= 8
 initwf: 4 bands have been initialized from disk
 initwf: disk file gives npw= 76 nband= 4 for kpt number= 9
 initwf: 4 bands have been initialized from disk
 initwf: disk file gives npw= 75 nband= 4 for kpt number= 10
 initwf: 4 bands have been initialized from disk
- newkpt: read input wf with ikpt,npw=   1      65, make ikpt,npw=   1      65
- newkpt: read input wf with ikpt,npw=   2      74, make ikpt,npw=   2      74
- newkpt: read input wf with ikpt,npw=   3      74, make ikpt,npw=   3      74
- newkpt: read input wf with ikpt,npw=   3      74, make ikpt,npw=   4      74
- newkpt: read input wf with ikpt,npw=   4      69, make ikpt,npw=   5      69
- newkpt: read input wf with ikpt,npw=   3      74, make ikpt,npw=   6      74
- newkpt: read input wf with ikpt,npw=   5      74, make ikpt,npw=   7      74
- newkpt: read input wf with ikpt,npw=   6      76, make ikpt,npw=   8      76
- newkpt: read input wf with ikpt,npw=   5      74, make ikpt,npw=   9      74
- newkpt: read input wf with ikpt,npw=   5      74, make ikpt,npw=  10      74
- newkpt: read input wf with ikpt,npw=   7      76, make ikpt,npw=  11      76
- newkpt: read input wf with ikpt,npw=   7      76, make ikpt,npw=  12      76
- newkpt: read input wf with ikpt,npw=   6      76, make ikpt,npw=  13      76
- newkpt: read input wf with ikpt,npw=   7      76, make ikpt,npw=  14      76
- newkpt: read input wf with ikpt,npw=   8      77, make ikpt,npw=  15      77
- newkpt: read input wf with ikpt,npw=   6      76, make ikpt,npw=  16      76
- newkpt: read input wf with ikpt,npw=   7      76, make ikpt,npw=  17      76
- newkpt: read input wf with ikpt,npw=   5      74, make ikpt,npw=  18      74
- newkpt: read input wf with ikpt,npw=   4      69, make ikpt,npw=  19      69
- newkpt: read input wf with ikpt,npw=   8      77, make ikpt,npw=  20      77
- newkpt: read input wf with ikpt,npw=   9      76, make ikpt,npw=  21      76
- newkpt: read input wf with ikpt,npw=   4      69, make ikpt,npw=  22      69
- newkpt: read input wf with ikpt,npw=   3      74, make ikpt,npw=  23      74
- newkpt: read input wf with ikpt,npw=   7      76, make ikpt,npw=  24      76
- newkpt: read input wf with ikpt,npw=  10      75, make ikpt,npw=  25      75
- newkpt: read input wf with ikpt,npw=  10      75, make ikpt,npw=  26      75
- newkpt: read input wf with ikpt,npw=   7      76, make ikpt,npw=  27      76
- newkpt: read input wf with ikpt,npw=   8      77, make ikpt,npw=  28      77
- newkpt: read input wf with ikpt,npw=   7      76, make ikpt,npw=  29      76
- newkpt: read input wf with ikpt,npw=   6      76, make ikpt,npw=  30      76
- newkpt: read input wf with ikpt,npw=  10      75, make ikpt,npw=  31      75
- newkpt: read input wf with ikpt,npw=  10      75, make ikpt,npw=  32      75
- newkpt: read input wf with ikpt,npw=   9      76, make ikpt,npw=  33      76
- newkpt: read input wf with ikpt,npw=  10      75, make ikpt,npw=  34      75
- newkpt: read input wf with ikpt,npw=  10      75, make ikpt,npw=  35      75
- newkpt: read input wf with ikpt,npw=   9      76, make ikpt,npw=  36      76
 getmpw: optimal value of mpw= 77
 kpgio: loop on k-points done in parallel
qpt is Gamma, psi_k+q initialized from psi_k in memory

 dfpt_looppert : eigenq array
 Initialisation of the first-order wave-functions :
  ireadwf=   0
 wfconv :     4 bands set=0 with npw=     65, for ikpt=   1
 wfconv :     4 bands set=0 with npw=     74, for ikpt=   2
 wfconv :     4 bands set=0 with npw=     74, for ikpt=   3
 wfconv :     4 bands set=0 with npw=     74, for ikpt=   4
 wfconv :     4 bands set=0 with npw=     69, for ikpt=   5
 wfconv :     4 bands set=0 with npw=     74, for ikpt=   6
 wfconv :     4 bands set=0 with npw=     74, for ikpt=   7
 wfconv :     4 bands set=0 with npw=     76, for ikpt=   8
 wfconv :     4 bands set=0 with npw=     74, for ikpt=   9
 wfconv :     4 bands set=0 with npw=     74, for ikpt=  10
 wfconv :     4 bands set=0 with npw=     76, for ikpt=  11
 wfconv :     4 bands set=0 with npw=     76, for ikpt=  12
 wfconv :     4 bands set=0 with npw=     76, for ikpt=  13
 wfconv :     4 bands set=0 with npw=     76, for ikpt=  14
 wfconv :     4 bands set=0 with npw=     77, for ikpt=  15
 wfconv :     4 bands set=0 with npw=     76, for ikpt=  16
 wfconv :     4 bands set=0 with npw=     76, for ikpt=  17
 wfconv :     4 bands set=0 with npw=     74, for ikpt=  18
 wfconv :     4 bands set=0 with npw=     69, for ikpt=  19
 wfconv :     4 bands set=0 with npw=     77, for ikpt=  20
 wfconv :     4 bands set=0 with npw=     76, for ikpt=  21
 wfconv :     4 bands set=0 with npw=     69, for ikpt=  22
 wfconv :     4 bands set=0 with npw=     74, for ikpt=  23
 wfconv :     4 bands set=0 with npw=     76, for ikpt=  24
 wfconv :     4 bands set=0 with npw=     75, for ikpt=  25
 wfconv :     4 bands set=0 with npw=     75, for ikpt=  26
 wfconv :     4 bands set=0 with npw=     76, for ikpt=  27
 wfconv :     4 bands set=0 with npw=     77, for ikpt=  28
 wfconv :     4 bands set=0 with npw=     76, for ikpt=  29
 wfconv :     4 bands set=0 with npw=     76, for ikpt=  30
 wfconv :     4 bands set=0 with npw=     75, for ikpt=  31
 wfconv :     4 bands set=0 with npw=     75, for ikpt=  32
 wfconv :     4 bands set=0 with npw=     76, for ikpt=  33
 wfconv :     4 bands set=0 with npw=     75, for ikpt=  34
 wfconv :     4 bands set=0 with npw=     75, for ikpt=  35
 wfconv :     4 bands set=0 with npw=     76, for ikpt=  36

 getcut: wavevector=  0.0000  0.0000  0.0000  ngfft=  12  12  12
         ecut(hartree)=      3.000   => boxcut(ratio)=   2.05142

 ITER STEP NUMBER     1
-ETOT  1   6.5156050829045     -1.464E+01 1.146E-02 1.947E+02

Simple mixing update:
  residual square of the potential :   77.107363063331178
dfpt_scfcv: previous iteration took 00 [s]

 ITER STEP NUMBER     2
 ETOT  2   5.0216332568369     -1.494E+00 9.267E-04 2.027E+00

 Pulay update with  1 previous iterations:
 mixing of old trial potential : alpha(m:m-4)=   1.06     -0.579E-01
dfpt_scfcv: previous iteration took 00 [s]

 ITER STEP NUMBER     3
 ETOT  3   5.0081675395772     -1.347E-02 5.325E-06 5.660E-02

 Pulay update with  2 previous iterations:
 mixing of old trial potential : alpha(m:m-4)=   1.05     -0.417E-01 -0.860E-02
dfpt_scfcv: previous iteration took 00 [s]

 ITER STEP NUMBER     4
 ETOT  4   5.0078655420048     -3.020E-04 1.601E-07 2.087E-03

 Pulay update with  3 previous iterations:
 mixing of old trial potential : alpha(m:m-4)=   1.11     -0.849E-01 -0.273E-01  0.162E-02
dfpt_scfcv: previous iteration took 00 [s]

 ITER STEP NUMBER     5
 ETOT  5   5.0078558671684     -9.675E-06 5.588E-09 3.089E-05

 Pulay update with  4 previous iterations:
 mixing of old trial potential : alpha(m:m-4)=   1.19     -0.187     -0.613E-02  0.584E-02 -0.177E-03
dfpt_scfcv: previous iteration took 00 [s]

 ITER STEP NUMBER     6
 ETOT  6   5.0078557436630     -1.235E-07 9.879E-11 2.297E-07

 Pulay update with  5 previous iterations:
 mixing of old trial potential : alpha(m:m-4)=   1.20     -0.226      0.281E-01  0.118E-02 -0.907E-03
dfpt_scfcv: previous iteration took 00 [s]

 ITER STEP NUMBER     7
 ETOT  7   5.0078557427889     -8.740E-10 8.545E-13 2.729E-09

 At SCF step    7       vres2   =  2.73E-09 < tolvrs=  1.00E-08 =>converged.
 fftdatar_write: About to write data to: trf1_3o_DEN1 with iomode IO_MODE_FORTRAN
 IO operation completed. cpu_time:       0.0 [s], walltime:       0.0 [s]
 fftdatar_write: About to write data to: trf1_3o_POT1 with iomode IO_MODE_FORTRAN
 IO operation completed. cpu_time:       0.0 [s], walltime:       0.0 [s]
================================================================================

 ----iterations are completed or convergence reached----

 Mean square residual over all n,k,spin=   20.406E-14; max=  85.447E-14
   0.0000  0.0000 -0.1250    1  6.75522E-13 kpt; spin; max resid(k); each band:
  1.08E-13 6.76E-13 3.06E-14 1.04E-13
   0.0000  0.0000 -0.3750    1  2.93869E-13 kpt; spin; max resid(k); each band:
  1.05E-13 2.94E-13 2.13E-14 9.82E-14
   0.0000  0.1250 -0.2500    1  3.65186E-13 kpt; spin; max resid(k); each band:
  8.30E-14 3.65E-13 9.60E-14 8.81E-14
   0.1250  0.0000 -0.2500    1  3.97280E-13 kpt; spin; max resid(k); each band:
  1.77E-13 3.02E-13 3.97E-13 1.48E-14
   0.1250  0.1250 -0.1250    1  4.55855E-13 kpt; spin; max resid(k); each band:
  2.41E-13 4.56E-13 3.38E-14 8.97E-14
   0.2500  0.0000 -0.1250    1  3.19245E-13 kpt; spin; max resid(k); each band:
  2.41E-13 3.19E-13 5.74E-14 1.34E-14
   0.0000  0.1250  0.5000    1  2.61474E-13 kpt; spin; max resid(k); each band:
  5.41E-14 2.61E-13 1.49E-13 4.09E-14
   0.0000  0.2500 -0.3750    1  2.89890E-13 kpt; spin; max resid(k); each band:
  6.68E-14 2.90E-13 7.47E-14 4.59E-14
   0.1250  0.0000  0.5000    1  4.44307E-13 kpt; spin; max resid(k); each band:
  7.22E-14 4.44E-13 3.69E-14 3.08E-14
   0.1250  0.1250 -0.3750    1  4.47469E-13 kpt; spin; max resid(k); each band:
  7.68E-14 4.47E-13 3.98E-14 3.01E-14
   0.1250  0.2500 -0.2500    1  3.53011E-13 kpt; spin; max resid(k); each band:
  6.58E-14 3.53E-13 1.36E-13 2.11E-13
   0.1250  0.3750 -0.1250    1  3.48139E-13 kpt; spin; max resid(k); each band:
  6.53E-14 3.48E-13 1.51E-13 2.07E-13
   0.2500  0.0000 -0.3750    1  4.66214E-13 kpt; spin; max resid(k); each band:
  8.18E-15 4.66E-13 2.20E-13 2.35E-13
   0.2500  0.1250 -0.2500    1  4.41945E-13 kpt; spin; max resid(k); each band:
  1.75E-13 3.57E-13 2.19E-13 4.42E-13
   0.2500  0.2500 -0.1250    1  4.04337E-13 kpt; spin; max resid(k); each band:
  1.49E-14 4.04E-13 4.09E-14 5.15E-14
   0.3750  0.0000 -0.2500    1  4.93617E-13 kpt; spin; max resid(k); each band:
  1.37E-14 2.65E-13 4.94E-13 2.30E-13
   0.3750  0.1250 -0.1250    1  5.86201E-13 kpt; spin; max resid(k); each band:
  2.26E-13 2.21E-13 5.86E-13 3.03E-14
   0.5000  0.0000 -0.1250    1  2.63544E-13 kpt; spin; max resid(k); each band:
  1.69E-13 2.64E-13 7.13E-14 4.01E-14
   0.0000  0.1250  0.2500    1  2.88677E-13 kpt; spin; max resid(k); each band:
  1.51E-13 2.89E-13 7.33E-14 9.60E-14
   0.0000  0.2500  0.3750    1  1.89322E-13 kpt; spin; max resid(k); each band:
  1.74E-13 1.89E-13 9.13E-14 9.30E-14
   0.0000  0.3750  0.5000    1  1.53248E-13 kpt; spin; max resid(k); each band:
  9.05E-14 1.53E-13 8.69E-14 9.74E-14
   0.1250  0.0000  0.2500    1  4.50993E-13 kpt; spin; max resid(k); each band:
  2.69E-13 4.51E-13 3.42E-14 2.28E-14
   0.1250  0.1250  0.3750    1  4.69131E-13 kpt; spin; max resid(k); each band:
  1.85E-13 3.00E-13 4.69E-13 8.90E-14
   0.1250  0.2500  0.5000    1  4.42936E-13 kpt; spin; max resid(k); each band:
  1.83E-13 2.63E-13 3.75E-13 4.43E-13
   0.1250  0.3750 -0.3750    1  5.80132E-13 kpt; spin; max resid(k); each band:
  6.98E-14 2.35E-13 1.51E-13 5.80E-13
   0.1250  0.5000 -0.2500    1  5.81692E-13 kpt; spin; max resid(k); each band:
  6.81E-14 2.40E-13 1.46E-13 5.82E-13
   0.1250 -0.3750 -0.1250    1  4.55628E-13 kpt; spin; max resid(k); each band:
  1.80E-13 2.66E-13 3.47E-13 4.56E-13
   0.2500  0.0000  0.3750    1  3.96063E-13 kpt; spin; max resid(k); each band:
  1.44E-14 3.96E-13 4.22E-14 5.39E-14
   0.2500  0.1250  0.5000    1  4.20806E-13 kpt; spin; max resid(k); each band:
  1.77E-13 3.51E-13 2.61E-13 4.21E-13
   0.2500  0.2500 -0.3750    1  4.67383E-13 kpt; spin; max resid(k); each band:
  6.97E-15 4.67E-13 2.43E-13 2.22E-13
   0.2500  0.3750 -0.2500    1  3.75354E-13 kpt; spin; max resid(k); each band:
  5.96E-14 3.75E-13 2.23E-13 2.10E-13
   0.2500  0.5000 -0.1250    1  3.77105E-13 kpt; spin; max resid(k); each band:
  5.74E-14 3.77E-13 2.17E-13 2.31E-13
   0.3750  0.0000  0.5000    1  6.21992E-13 kpt; spin; max resid(k); each band:
  1.07E-13 4.52E-13 6.22E-13 6.52E-14
   0.3750  0.1250 -0.3750    1  3.80743E-13 kpt; spin; max resid(k); each band:
  5.15E-14 3.52E-13 1.97E-13 3.81E-13
   0.3750  0.2500 -0.2500    1  3.72074E-13 kpt; spin; max resid(k); each band:
  5.66E-14 3.56E-13 1.94E-13 3.72E-13
   0.3750  0.3750 -0.1250    1  6.07368E-13 kpt; spin; max resid(k); each band:
  1.01E-13 4.60E-13 6.07E-13 6.02E-14
   0.5000  0.0000 -0.3750    1  8.50306E-13 kpt; spin; max resid(k); each band:
  1.00E-14 3.66E-13 8.50E-13 6.47E-14
   0.5000  0.1250 -0.2500    1  4.55614E-13 kpt; spin; max resid(k); each band:
  9.78E-14 2.68E-13 4.56E-13 2.48E-13
  -0.3750  0.0000 -0.2500    1  1.84226E-13 kpt; spin; max resid(k); each band:
  1.80E-14 1.84E-13 8.31E-14 5.32E-14
  -0.2500  0.0000 -0.1250    1  2.99597E-13 kpt; spin; max resid(k); each band:
  3.00E-13 2.81E-13 3.42E-14 1.01E-13
   0.1250  0.0000  0.0000    1  1.02034E-13 kpt; spin; max resid(k); each band:
  1.02E-13 8.86E-14 5.85E-14 2.73E-14
   0.1250  0.1250  0.1250    1  1.69552E-13 kpt; spin; max resid(k); each band:
  1.70E-13 8.70E-14 5.60E-14 2.81E-14
   0.1250  0.2500  0.2500    1  4.54934E-13 kpt; spin; max resid(k); each band:
  1.94E-13 4.55E-13 1.68E-14 1.12E-13
   0.1250  0.3750  0.3750    1  2.31811E-13 kpt; spin; max resid(k); each band:
  1.62E-13 2.32E-13 8.99E-14 1.09E-14
   0.1250  0.5000  0.5000    1  1.88899E-13 kpt; spin; max resid(k); each band:
  1.15E-14 1.89E-13 6.87E-14 1.12E-14
   0.1250 -0.3750 -0.3750    1  1.97111E-13 kpt; spin; max resid(k); each band:
  1.17E-14 1.97E-13 6.77E-14 1.11E-14
   0.1250 -0.2500 -0.2500    1  2.62328E-13 kpt; spin; max resid(k); each band:
  1.67E-13 2.62E-13 8.70E-14 1.02E-14
   0.1250 -0.1250 -0.1250    1  4.99940E-13 kpt; spin; max resid(k); each band:
  1.52E-13 5.00E-13 1.09E-14 1.07E-13
   0.2500  0.1250  0.2500    1  3.03981E-13 kpt; spin; max resid(k); each band:
  3.04E-13 2.45E-13 3.33E-14 1.05E-13
   0.2500  0.2500  0.3750    1  2.79941E-13 kpt; spin; max resid(k); each band:
  2.44E-13 2.80E-13 5.98E-14 7.25E-14
 outwf : prtvol=0 or 1, do not print more k-points.


 outwf: write wavefunction to file trf1_3o_1WF1, with iomode -1
 outwf with iomode: -1, cpu_time:     0.00[s], walltime:     0.00 [s]

 Thirteen components of 2nd-order total energy (hartree) are
 1,2,3: 0th-order hamiltonian combined with 1st-order wavefunctions
     kin0=   1.89159560E+01 eigvalue=   6.44876793E-01  local=  -1.10545777E+01
 4,5,6: 1st-order hamiltonian combined with 1st and 0th-order wfs
 loc psp =  -1.49261359E+01  Hartree=   3.64459077E+00     xc=  -1.67029798E+00
 note that "loc psp" includes a xc core correction that could be resolved
 7,8,9: eventually, occupation + non-local contributions
    edocc=   0.00000000E+00     enl0=   5.66829553E+00   enl1=  -1.73715546E+01
 1-9 gives the relaxation energy (to be shifted if some occ is /=2.0)
   erelax=  -1.61488470E+01
 10,11,12 Non-relaxation  contributions : frozen-wavefunctions and Ewald
 fr.local=  -6.53124858E+00 fr.nonlo=   1.58440582E+01  Ewald=   1.18438931E+01
 dfpt_prtene : non-relax=    2.115670E+01
 13,14 Frozen wf xc core corrections (1) and (2)
 frxc 1  =   0.00000000E+00  frxc 2 =   0.00000000E+00
 Resulting in :
 2DEtotal=    0.5007855743E+01 Ha. Also 2DEtotal=    0.136270684933E+03 eV
    (2DErelax=   -1.6148847045E+01 Ha. 2DEnonrelax=    2.1156702788E+01 Ha)
    (  non-var. 2DEtotal :    5.0078575320E+00 Ha)

================================================================================

 ---- first-order wavefunction calculations are completed ----


 ==> Compute Derivative Database <==
 
 phonon wavelength (reduced coordinates) , norm, and energies in hartree
  0.00 0.00 0.00 1.00
  0.000000000E+00  0.000000000E+00  0.000000000E+00  1.344968722E-03  1.344968722E-03
  1.344968722E-03
 Zero Point Motion energy (sum of freqs/2)=  2.017453083E-03
 chkph3 : WARNING -
  The dynamical matrix was incomplete : phonon frequencies may be wrong ...
  efmasval_free_array : enter 

== END DATASET(S) ==============================================================
================================================================================
  
 -outvars: echo values of variables after computation  --------
 
 These variables are accessible in NetCDF format (trf1_3o_OUT.nc)

            acell      1.0610000000E+01  1.0610000000E+01  1.0610000000E+01 Bohr
              amu      2.69815390E+01  7.49215900E+01
           diemac      9.00000000E+00
             ecut      3.00000000E+00 Hartree
           etotal      5.0078557428E+00
            fcart      0.0000000000E+00  0.0000000000E+00  0.0000000000E+00
                       0.0000000000E+00  0.0000000000E+00  0.0000000000E+00
-          fftalg         312
           irdwfk           1
              kpt      0.00000000E+00  0.00000000E+00 -1.25000000E-01
                       0.00000000E+00  0.00000000E+00 -3.75000000E-01
                       0.00000000E+00  1.25000000E-01 -2.50000000E-01
                       0.00000000E+00  2.50000000E-01 -1.25000000E-01
                       1.25000000E-01  0.00000000E+00 -2.50000000E-01
                       1.25000000E-01  1.25000000E-01 -1.25000000E-01
                       2.50000000E-01  0.00000000E+00 -1.25000000E-01
                       0.00000000E+00  1.25000000E-01  5.00000000E-01
                       0.00000000E+00  2.50000000E-01 -3.75000000E-01
                       0.00000000E+00  3.75000000E-01 -2.50000000E-01
                       0.00000000E+00  5.00000000E-01 -1.25000000E-01
                       1.25000000E-01  0.00000000E+00  5.00000000E-01
                       1.25000000E-01  1.25000000E-01 -3.75000000E-01
                       1.25000000E-01  2.50000000E-01 -2.50000000E-01
                       1.25000000E-01  3.75000000E-01 -1.25000000E-01
                       2.50000000E-01  0.00000000E+00 -3.75000000E-01
                       2.50000000E-01  1.25000000E-01 -2.50000000E-01
                       2.50000000E-01  2.50000000E-01 -1.25000000E-01
                       3.75000000E-01  0.00000000E+00 -2.50000000E-01
                       3.75000000E-01  1.25000000E-01 -1.25000000E-01
                       5.00000000E-01  0.00000000E+00 -1.25000000E-01
                       0.00000000E+00  1.25000000E-01  2.50000000E-01
                       0.00000000E+00  2.50000000E-01  3.75000000E-01
                       0.00000000E+00  3.75000000E-01  5.00000000E-01
                       0.00000000E+00  5.00000000E-01 -3.75000000E-01
                       0.00000000E+00 -3.75000000E-01 -2.50000000E-01
                       0.00000000E+00 -2.50000000E-01 -1.25000000E-01
                       1.25000000E-01  0.00000000E+00  2.50000000E-01
                       1.25000000E-01  1.25000000E-01  3.75000000E-01
                       1.25000000E-01  2.50000000E-01  5.00000000E-01
                       1.25000000E-01  3.75000000E-01 -3.75000000E-01
                       1.25000000E-01  5.00000000E-01 -2.50000000E-01
                       1.25000000E-01 -3.75000000E-01 -1.25000000E-01
                       2.50000000E-01  0.00000000E+00  3.75000000E-01
                       2.50000000E-01  1.25000000E-01  5.00000000E-01
                       2.50000000E-01  2.50000000E-01 -3.75000000E-01
                       2.50000000E-01  3.75000000E-01 -2.50000000E-01
                       2.50000000E-01  5.00000000E-01 -1.25000000E-01
                       3.75000000E-01  0.00000000E+00  5.00000000E-01
                       3.75000000E-01  1.25000000E-01 -3.75000000E-01
                       3.75000000E-01  2.50000000E-01 -2.50000000E-01
                       3.75000000E-01  3.75000000E-01 -1.25000000E-01
                       5.00000000E-01  0.00000000E+00 -3.75000000E-01
                       5.00000000E-01  1.25000000E-01 -2.50000000E-01
                       5.00000000E-01  2.50000000E-01 -1.25000000E-01
                      -3.75000000E-01  0.00000000E+00 -2.50000000E-01
                      -3.75000000E-01  1.25000000E-01 -1.25000000E-01
                      -2.50000000E-01  0.00000000E+00 -1.25000000E-01
                       0.00000000E+00  1.25000000E-01  0.00000000E+00
                       1.25000000E-01  0.00000000E+00  0.00000000E+00
                       outvar_i_n : Printing only first  50 k-points.
           kptopt           2
         kptrlatt       -4    4    4      4   -4    4      4    4   -4
          kptrlen      4.24400000E+01
P           mkmem          64
P          mkqmem          64
P          mk1mem          64
            natom           2
            nband           4
            ngfft          12      12      12
             nkpt         128
             nqpt           1
            nstep          15
             nsym          24
           ntypat           2
              occ      2.000000  2.000000  2.000000  2.000000
        optdriver           1
            rfdir           1       0       0
           rfphon           1
            rprim      0.0000000000E+00  5.0000000000E-01  5.0000000000E-01
                       5.0000000000E-01  0.0000000000E+00  5.0000000000E-01
                       5.0000000000E-01  5.0000000000E-01  0.0000000000E+00
           shiftk      5.00000000E-01  5.00000000E-01  5.00000000E-01
          spgroup         216
           strten      0.0000000000E+00  0.0000000000E+00  0.0000000000E+00
                       0.0000000000E+00  0.0000000000E+00  0.0000000000E+00
           symrel      1  0  0   0  1  0   0  0  1       0 -1  1   0 -1  0   1 -1  0
                      -1  0  0  -1  0  1  -1  1  0       0  1 -1   1  0 -1   0  0 -1
                      -1  0  0  -1  1  0  -1  0  1       0 -1  1   1 -1  0   0 -1  0
                       1  0  0   0  0  1   0  1  0       0  1 -1   0  0 -1   1  0 -1
                      -1  0  1  -1  1  0  -1  0  0       0 -1  0   1 -1  0   0 -1  1
                       1  0 -1   0  0 -1   0  1 -1       0  1  0   0  0  1   1  0  0
                       1  0 -1   0  1 -1   0  0 -1       0 -1  0   0 -1  1   1 -1  0
                      -1  0  1  -1  0  0  -1  1  0       0  1  0   1  0  0   0  0  1
                       0  0 -1   0  1 -1   1  0 -1       1 -1  0   0 -1  1   0 -1  0
                       0  0  1   1  0  0   0  1  0      -1  1  0  -1  0  0  -1  0  1
                       0  0  1   0  1  0   1  0  0       1 -1  0   0 -1  0   0 -1  1
                       0  0 -1   1  0 -1   0  1 -1      -1  1  0  -1  0  1  -1  0  0
           tolvrs      1.00000000E-08
            typat      1  2
              wtk        0.00781    0.00781    0.00781    0.00781    0.00781    0.00781
                         0.00781    0.00781    0.00781    0.00781    0.00781    0.00781
                         0.00781    0.00781    0.00781    0.00781    0.00781    0.00781
                         0.00781    0.00781    0.00781    0.00781    0.00781    0.00781
                         0.00781    0.00781    0.00781    0.00781    0.00781    0.00781
                         0.00781    0.00781    0.00781    0.00781    0.00781    0.00781
                         0.00781    0.00781    0.00781    0.00781    0.00781    0.00781
                         0.00781    0.00781    0.00781    0.00781    0.00781    0.00781
                         0.00781    0.00781
                       outvars : Printing only first  50 k-points.
           xangst      0.0000000000E+00  0.0000000000E+00  0.0000000000E+00
                       1.4036425458E+00  1.4036425458E+00  1.4036425458E+00
            xcart      0.0000000000E+00  0.0000000000E+00  0.0000000000E+00
                       2.6525000000E+00  2.6525000000E+00  2.6525000000E+00
             xred      0.0000000000E+00  0.0000000000E+00  0.0000000000E+00
                       2.5000000000E-01  2.5000000000E-01  2.5000000000E-01
            znucl       13.00000   33.00000

================================================================================
  

================================================================================

 Suggested references for the acknowledgment of ABINIT usage.

 The users of ABINIT have little formal obligations with respect to the ABINIT group
 (those specified in the GNU General Public License, http://www.gnu.org/copyleft/gpl.txt).
 However, it is common practice in the scientific literature,
 to acknowledge the efforts of people that have made the research possible.
 In this spirit, please find below suggested citations of work written by ABINIT developers,
 corresponding to implementations inside of ABINIT that you have used in the present run.
 Note also that it will be of great value to readers of publications presenting these results,
 to read papers enabling them to understand the theoretical formalism and details
 of the ABINIT implementation.
 For information on why they are suggested, see also https://docs.abinit.org/theory/acknowledgments.
-
- [1] Recent developments in the ABINIT software package.
- Computer Phys. Comm. 205, 106 (2016).
- X.Gonze, F.Jollet, F.Abreu Araujo, D.Adams, B.Amadon, T.Applencourt,
- C.Audouze, J.-M.Beuken, J.Bieder, A.Bokhanchuk, E.Bousquet, F.Bruneval
- D.Caliste, M.Cote, F.Dahm, F.Da Pieve, M.Delaveau, M.Di Gennaro,
- B.Dorado, C.Espejo, G.Geneste, L.Genovese, A.Gerossier, M.Giantomassi,
- Y.Gillet, D.R.Hamann, L.He, G.Jomard, J.Laflamme Janssen, S.Le Roux,
- A.Levitt, A.Lherbier, F.Liu, I.Lukacevic, A.Martin, C.Martins,
- M.J.T.Oliveira, S.Ponce, Y.Pouillon, T.Rangel, G.-M.Rignanese,
- A.H.Romero, B.Rousseau, O.Rubel, A.A.Shukri, M.Stankovski, M.Torrent,
- M.J.Van Setten, B.Van Troeye, M.J.Verstraete, D.Waroquier, J.Wiktor,
- B.Xu, A.Zhou, J.W.Zwanziger.
- Comment : the fourth generic paper describing the ABINIT project.
- Note that a version of this paper, that is not formatted for Computer Phys. Comm. 
- is available at https://www.abinit.org/about/ABINIT16.pdf .
- The licence allows the authors to put it on the Web.
- DOI and bibtex : see https://docs.abinit.org/theory/bibliography/#gonze2016
-
- [2] First-principles responses of solids to atomic displacements and homogeneous electric fields:,
- implementation of a conjugate-gradient algorithm. X. Gonze, Phys. Rev. B55, 10337 (1997).
- Comment : Non-vanishing rfphon and/or rfelfd, in the norm-conserving case.
- DOI and bibtex : see https://docs.abinit.org/theory/bibliography/#gonze1997
-
- [3] Dynamical matrices, Born effective charges, dielectric permittivity tensors, and ,
- interatomic force constants from density-functional perturbation theory,
- X. Gonze and C. Lee, Phys. Rev. B55, 10355 (1997).
- Comment : Non-vanishing rfphon and/or rfelfd, in the norm-conserving case.
- DOI and bibtex : see https://docs.abinit.org/theory/bibliography/#gonze1997a
-
- [4] Ab initio pseudopotentials for electronic structure calculations of poly-atomic systems, 
- using density-functional theory.
- M. Fuchs, M. Scheffler, Comput. Phys. Commun. 119, 67 (1999).
- Comment : Some pseudopotential generated using the FHI code were used.
- DOI and bibtex : see https://docs.abinit.org/theory/bibliography/#fuchs1999
-
- [5] ABINIT : First-principles approach of materials and nanosystem properties.
- Computer Phys. Comm. 180, 2582-2615 (2009).
- X. Gonze, B. Amadon, P.-M. Anglade, J.-M. Beuken, F. Bottin, P. Boulanger, F. Bruneval,
- D. Caliste, R. Caracas, M. Cote, T. Deutsch, L. Genovese, Ph. Ghosez, M. Giantomassi
- S. Goedecker, D.R. Hamann, P. Hermet, F. Jollet, G. Jomard, S. Leroux, M. Mancini, S. Mazevet,
- M.J.T. Oliveira, G. Onida, Y. Pouillon, T. Rangel, G.-M. Rignanese, D. Sangalli, R. Shaltaf,
- M. Torrent, M.J. Verstraete, G. Zerah, J.W. Zwanziger
- Comment : the third generic paper describing the ABINIT project.
- Note that a version of this paper, that is not formatted for Computer Phys. Comm. 
- is available at https://www.abinit.org/about/ABINIT_CPC_v10.pdf .
- The licence allows the authors to put it on the Web.
- DOI and bibtex : see https://docs.abinit.org/theory/bibliography/#gonze2009
-
- [6] A brief introduction to the ABINIT software package.
- Z. Kristallogr. 220, 558-562 (2005).
- X. Gonze, G.-M. Rignanese, M. Verstraete, J.-M. Beuken, Y. Pouillon, R. Caracas, F. Jollet,
- M. Torrent, G. Zerah, M. Mikami, Ph. Ghosez, M. Veithen, J.-Y. Raty, V. Olevano, F. Bruneval,
- L. Reining, R. Godby, G. Onida, D.R. Hamann, and D.C. Allan.
- Comment : the second generic paper describing the ABINIT project. Note that this paper
- should be cited especially if you are using the GW part of ABINIT, as several authors
- of this part are not in the list of authors of the first or third paper.
- The .pdf of the latter paper is available at https://www.abinit.org/about/zfk_0505-06_558-562.pdf.
- Note that it should not redistributed (Copyright by Oldenburg Wissenshaftverlag,
- the licence allows the authors to put it on the Web).
- DOI and bibtex : see https://docs.abinit.org/theory/bibliography/#gonze2005
 Proc.   0 individual time (sec): cpu=          1.0  wall=          1.1

 Calculation completed.
.Delivered   1 WARNINGs and   0 COMMENTs to log file.

--- !FinalSummary
program: abinit
version: 8.10.3
start_datetime: Tue Oct 29 13:58:21 2019
end_datetime: Tue Oct 29 13:58:22 2019
overall_cpu_time:           2.0
overall_wall_time:           2.1
exit_requested_by_user: no 
timelimit: 0
pseudos: 
    Al  : 45177dc68580e70ffd690f1e65e9b174
    As  : 56f075499613b4e8e69cc77bd15edc6d
usepaw: 0
mpi_procs: 2
omp_threads: 1
num_warnings: 1
num_comments: 0
...
