
.Version 8.11.13 of ABINIT 
.(MPI version, prepared for a x86_64_linux_intel14.0 computer) 

.Copyright (C) 1998-2019 ABINIT group . 
 ABINIT comes with ABSOLUTELY NO WARRANTY.
 It is free software, and you are welcome to redistribute it
 under certain conditions (GNU General Public License,
 see ~abinit/COPYING or http://www.gnu.org/copyleft/gpl.txt).

 ABINIT is a project of the Universite Catholique de Louvain,
 Corning Inc. and other collaborators, see ~abinit/doc/developers/contributors.txt .
 Please read https://docs.abinit.org/theory/acknowledgments for suggested
 acknowledgments of the ABINIT effort.
 For more information, see https://www.abinit.org .

.Starting date : Fri  3 Jan 2020.
- ( at 16h42 )
  
- input  file    -> opt.in
- output file    -> opt.out
- root for input  files -> opti
- root for output files -> opto
 
 
 Symmetries : space group Fd -3 m (#227); Bravais cF (face-center cubic)
================================================================================
 Values of the parameters that define the memory need of the present run
     intxc =       0    ionmov =       2      iscf =       7    lmnmax =       6
     lnmax =       6     mgfft =      80  mpssoang =       3    mqgrid =    3179
     natom =       2  nloc_mem =       1    nspden =       1   nspinor =       1
    nsppol =       1      nsym =      48    n1xccc =    2501    ntypat =       1
    occopt =       1   xclevel =       2
-    mband =           4        mffmem =           1         mkmem =          10
       mpw =       21911          nfft =      512000          nkpt =          10
================================================================================
P This job should need less than                     180.897 Mbytes of memory.
  Rough estimation (10% accuracy) of disk space for files :
_ WF disk file :     13.375 Mbytes ; DEN or POT disk file :      3.908 Mbytes.
================================================================================
 
--------------------------------------------------------------------------------
------------- Echo of variables that govern the present computation ------------
--------------------------------------------------------------------------------
-
- outvars: echo of selected default values                                      
-   iomode0 =  0 , fftalg0 =312 , wfoptalg0 =  0
-
- outvars: echo of global parameters not present in the input file              
-  max_nthreads =    0
-
 -outvars: echo values of preprocessed input variables --------
            acell      5.4695448600E+00  5.4695448600E+00  5.4695448600E+00 Bohr
              amu      2.80855000E+01
       chkdilatmx           0
          dilatmx      5.00000000E+00
             ecut      2.00000000E+01 Hartree
           ecutsm      5.00000000E-01 Hartree
-          fftalg         312
           ionmov           2
              ixc          11
              kpt     -1.25000000E-01 -2.50000000E-01  0.00000000E+00
                      -1.25000000E-01  5.00000000E-01  0.00000000E+00
                      -2.50000000E-01 -3.75000000E-01  0.00000000E+00
                      -1.25000000E-01 -3.75000000E-01  1.25000000E-01
                      -1.25000000E-01  2.50000000E-01  0.00000000E+00
                      -2.50000000E-01  3.75000000E-01  0.00000000E+00
                      -3.75000000E-01  5.00000000E-01  0.00000000E+00
                      -2.50000000E-01  5.00000000E-01  1.25000000E-01
                      -1.25000000E-01  0.00000000E+00  0.00000000E+00
                      -3.75000000E-01  0.00000000E+00  0.00000000E+00
         kptrlatt        4   -4    4     -4    4    4     -4   -4    4
          kptrlen      2.18781794E+01
P           mkmem          10
            natom           2
            nband           4
            ngfft          80      80      80
             nkpt          10
             nsym          48
            ntime          15
           ntypat           1
              occ      2.000000  2.000000  2.000000  2.000000
          optcell           2
            rprim      5.0000000000E-01  5.0000000000E-01  0.0000000000E+00
                       0.0000000000E+00  5.0000000000E-01  5.0000000000E-01
                       5.0000000000E-01  0.0000000000E+00  5.0000000000E-01
           shiftk      5.00000000E-01  5.00000000E-01  5.00000000E-01
          spgroup         227
           symrel      1  0  0   0  1  0   0  0  1      -1  0  0   0 -1  0   0  0 -1
                       0 -1  1   0 -1  0   1 -1  0       0  1 -1   0  1  0  -1  1  0
                      -1  0  0  -1  0  1  -1  1  0       1  0  0   1  0 -1   1 -1  0
                       0  1 -1   1  0 -1   0  0 -1       0 -1  1  -1  0  1   0  0  1
                      -1  0  0  -1  1  0  -1  0  1       1  0  0   1 -1  0   1  0 -1
                       0 -1  1   1 -1  0   0 -1  0       0  1 -1  -1  1  0   0  1  0
                       1  0  0   0  0  1   0  1  0      -1  0  0   0  0 -1   0 -1  0
                       0  1 -1   0  0 -1   1  0 -1       0 -1  1   0  0  1  -1  0  1
                      -1  0  1  -1  1  0  -1  0  0       1  0 -1   1 -1  0   1  0  0
                       0 -1  0   1 -1  0   0 -1  1       0  1  0  -1  1  0   0  1 -1
                       1  0 -1   0  0 -1   0  1 -1      -1  0  1   0  0  1   0 -1  1
                       0  1  0   0  0  1   1  0  0       0 -1  0   0  0 -1  -1  0  0
                       1  0 -1   0  1 -1   0  0 -1      -1  0  1   0 -1  1   0  0  1
                       0 -1  0   0 -1  1   1 -1  0       0  1  0   0  1 -1  -1  1  0
                      -1  0  1  -1  0  0  -1  1  0       1  0 -1   1  0  0   1 -1  0
                       0  1  0   1  0  0   0  0  1       0 -1  0  -1  0  0   0  0 -1
                       0  0 -1   0  1 -1   1  0 -1       0  0  1   0 -1  1  -1  0  1
                       1 -1  0   0 -1  1   0 -1  0      -1  1  0   0  1 -1   0  1  0
                       0  0  1   1  0  0   0  1  0       0  0 -1  -1  0  0   0 -1  0
                      -1  1  0  -1  0  0  -1  0  1       1 -1  0   1  0  0   1  0 -1
                       0  0  1   0  1  0   1  0  0       0  0 -1   0 -1  0  -1  0  0
                       1 -1  0   0 -1  0   0 -1  1      -1  1  0   0  1  0   0  1 -1
                       0  0 -1   1  0 -1   0  1 -1       0  0  1  -1  0  1   0 -1  1
                      -1  1  0  -1  0  1  -1  0  0       1 -1  0   1  0 -1   1  0  0
            tnons      0.0000000  0.0000000  0.0000000     0.2500000  0.2500000  0.2500000
                       0.0000000  0.0000000  0.0000000     0.2500000  0.2500000  0.2500000
                       0.0000000  0.0000000  0.0000000     0.2500000  0.2500000  0.2500000
                       0.0000000  0.0000000  0.0000000     0.2500000  0.2500000  0.2500000
                       0.0000000  0.0000000  0.0000000     0.2500000  0.2500000  0.2500000
                       0.0000000  0.0000000  0.0000000     0.2500000  0.2500000  0.2500000
                       0.0000000  0.0000000  0.0000000     0.2500000  0.2500000  0.2500000
                       0.0000000  0.0000000  0.0000000     0.2500000  0.2500000  0.2500000
                       0.0000000  0.0000000  0.0000000     0.2500000  0.2500000  0.2500000
                       0.0000000  0.0000000  0.0000000     0.2500000  0.2500000  0.2500000
                       0.0000000  0.0000000  0.0000000     0.2500000  0.2500000  0.2500000
                       0.0000000  0.0000000  0.0000000     0.2500000  0.2500000  0.2500000
                       0.0000000  0.0000000  0.0000000     0.2500000  0.2500000  0.2500000
                       0.0000000  0.0000000  0.0000000     0.2500000  0.2500000  0.2500000
                       0.0000000  0.0000000  0.0000000     0.2500000  0.2500000  0.2500000
                       0.0000000  0.0000000  0.0000000     0.2500000  0.2500000  0.2500000
                       0.0000000  0.0000000  0.0000000     0.2500000  0.2500000  0.2500000
                       0.0000000  0.0000000  0.0000000     0.2500000  0.2500000  0.2500000
                       0.0000000  0.0000000  0.0000000     0.2500000  0.2500000  0.2500000
                       0.0000000  0.0000000  0.0000000     0.2500000  0.2500000  0.2500000
                       0.0000000  0.0000000  0.0000000     0.2500000  0.2500000  0.2500000
                       0.0000000  0.0000000  0.0000000     0.2500000  0.2500000  0.2500000
                       0.0000000  0.0000000  0.0000000     0.2500000  0.2500000  0.2500000
                       0.0000000  0.0000000  0.0000000     0.2500000  0.2500000  0.2500000
           tolvrs      1.00000000E-08
            typat      1  1
              wtk        0.09375    0.09375    0.09375    0.18750    0.09375    0.09375
                         0.09375    0.18750    0.03125    0.03125
           xangst      0.0000000000E+00  0.0000000000E+00  0.0000000000E+00
                       7.2358962032E-01  7.2358962032E-01  7.2358962032E-01
            xcart      0.0000000000E+00  0.0000000000E+00  0.0000000000E+00
                       1.3673862150E+00  1.3673862150E+00  1.3673862150E+00
             xred      0.0000000000E+00  0.0000000000E+00  0.0000000000E+00
                       2.5000000000E-01  2.5000000000E-01  2.5000000000E-01
            znucl       14.00000
 
================================================================================
 
 chkinp: Checking input parameters for consistency.
 
================================================================================
== DATASET  1 ==================================================================
-   nproc =    1
 
 Exchange-correlation functional for the present dataset will be:
  GGA: Perdew-Burke-Ernzerhof functional - ixc=11
 Citation for XC functional:
  J.P.Perdew, K.Burke, M.Ernzerhof, PRL 77, 3865 (1996)
 
 Real(R)+Recip(G) space primitive vectors, cartesian coordinates (Bohr,Bohr^-1):
 R(1)=  2.7347724  2.7347724  0.0000000  G(1)=  0.1828306  0.1828306 -0.1828306
 R(2)=  0.0000000  2.7347724  2.7347724  G(2)= -0.1828306  0.1828306  0.1828306
 R(3)=  2.7347724  0.0000000  2.7347724  G(3)=  0.1828306 -0.1828306  0.1828306
 Unit cell volume ucvol=  4.0906618E+01 bohr^3
 Angles (23,13,12)=  6.00000000E+01  6.00000000E+01  6.00000000E+01 degrees
 
 getcut: wavevector=  0.0000  0.0000  0.0000  ngfft=  80  80  80
         ecut(hartree)=    500.000   => boxcut(ratio)=   2.05496
 
--- Pseudopotential description ------------------------------------------------
- pspini: atom type   1  psp file is /CECI/home/ucl/naps/jovbever/.PsP/Si/Si.psp8
- pspatm: opening atomic psp file    /CECI/home/ucl/naps/jovbever/.PsP/Si/Si.psp8
- Si    ONCVPSP-3.2.3.1  r_core=   1.60303   1.72197   1.91712
- 14.00000   4.00000    170510                znucl, zion, pspdat
    8   11    2    4       600   0.00000      pspcod,pspxc,lmax,lloc,mmax,r2well
    5.99000000000000    4.00000000000000    0.00000000000000   rchrg,fchrg,qchrg
     nproj     2     2     2
     extension_switch     1
  pspatm : epsatm=    9.34321699
         --- l  ekb(1:nproj) -->
             0    5.168965    0.829883
             1    2.571282    0.578307
             2   -2.427311   -0.488097
 pspatm: atomic psp has been read  and splines computed
 
   1.49491472E+02                                ecore*ucvol(ha*bohr**3)
--------------------------------------------------------------------------------
 
_setup2: Arith. and geom. avg. npw (full set) are   21845.281   21845.274
 
================================================================================
 
=== [ionmov= 2] Broyden-Fletcher-Goldfard-Shanno method (forces)            
================================================================================
 
--- Iteration: ( 1/15) Internal Cycle: (1/1)
--------------------------------------------------------------------------------
 
---SELF-CONSISTENT-FIELD CONVERGENCE--------------------------------------------
 
     iter   Etot(hartree)      deltaE(h)  residm     vres2
 ETOT  1  -4.2252672737569    -4.225E+00 1.641E-01 1.028E+03
 ETOT  2  -4.2499655280959    -2.470E-02 3.917E-02 2.626E-01
 ETOT  3  -4.2505063578785    -5.408E-04 1.295E-03 1.827E-03
 ETOT  4  -4.2505414391827    -3.508E-05 1.421E-04 9.021E-06
 ETOT  5  -4.2505444989229    -3.060E-06 9.754E-06 3.757E-08
 ETOT  6  -4.2505447745425    -2.756E-07 1.021E-06 2.033E-08
 ETOT  7  -4.2505447996342    -2.509E-08 8.179E-08 2.065E-10
 
 At SCF step    7       vres2   =  2.07E-10 < tolvrs=  1.00E-08 =>converged.
 
 Cartesian components of stress tensor (hartree/bohr^3)
  sigma(1 1)= -1.45317321E-01  sigma(3 2)=  0.00000000E+00
  sigma(2 2)= -1.45317321E-01  sigma(3 1)=  0.00000000E+00
  sigma(3 3)= -1.45317321E-01  sigma(2 1)=  0.00000000E+00
 
 Integrated electronic density in atomic spheres:
 ------------------------------------------------
 Atom  Sphere_radius  Integrated_density
    1        2.00000          6.76927014
    2        2.00000          6.76927014
 
---OUTPUT-----------------------------------------------------------------------
 
 Cartesian coordinates (xcart) [bohr]
  0.00000000000000E+00  0.00000000000000E+00  0.00000000000000E+00
  1.36738621500000E+00  1.36738621500000E+00  1.36738621500000E+00
 Reduced coordinates (xred)
  0.00000000000000E+00  0.00000000000000E+00  0.00000000000000E+00
  2.50000000000000E-01  2.50000000000000E-01  2.50000000000000E-01
 Cartesian forces (fcart) [Ha/bohr]; max,rms= 2.40380E-31 2.40380E-31 (free atoms)
  2.40379813864138E-31  2.40379813864138E-31 -2.40379813864138E-31
 -2.40379813864138E-31 -2.40379813864138E-31  2.40379813864138E-31
 Reduced forces (fred)
 -1.31476817536835E-30  0.00000000000000E+00  0.00000000000000E+00
  1.31476817536835E-30  0.00000000000000E+00  0.00000000000000E+00
 Scale of Primitive Cell (acell) [bohr]
  5.46954486000000E+00  5.46954486000000E+00  5.46954486000000E+00
 Real space primitive translations (rprimd) [bohr]
  2.73477243000000E+00  2.73477243000000E+00  0.00000000000000E+00
  0.00000000000000E+00  2.73477243000000E+00  2.73477243000000E+00
  2.73477243000000E+00  0.00000000000000E+00  2.73477243000000E+00
 Unitary Cell Volume (ucvol) [Bohr^3]=  4.09066179509997E+01
 Angles (23,13,12)= [degrees]
  6.00000000000000E+01  6.00000000000000E+01  6.00000000000000E+01
 Lengths [Bohr]
  3.86755226051003E+00  3.86755226051003E+00  3.86755226051003E+00
 Stress tensor in cartesian coordinates (strten) [Ha/bohr^3]
 -1.45317320862447E-01  0.00000000000000E+00  0.00000000000000E+00
  0.00000000000000E+00 -1.45317320862447E-01  0.00000000000000E+00
  0.00000000000000E+00  0.00000000000000E+00 -1.45317320862447E-01
 Total energy (etotal) [Ha]= -4.25054479963416E+00
 
--- Iteration: ( 2/15) Internal Cycle: (1/1)
--------------------------------------------------------------------------------
 
---SELF-CONSISTENT-FIELD CONVERGENCE--------------------------------------------
 
     iter   Etot(hartree)      deltaE(h)  residm     vres2
 ETOT  1  -7.0049242922004    -7.005E+00 5.285E+00 4.266E+06
 ETOT  2  -5.5276865018988     1.477E+00 2.107E-01 2.912E+06
 ETOT  3  -7.9319621063760    -2.404E+00 2.959E-02 5.889E+05
 ETOT  4  -8.0023456374531    -7.038E-02 9.423E-04 3.999E+05
 ETOT  5  -7.6185279236186     3.838E-01 1.138E-02 1.248E+05
 ETOT  6  -7.8192370994409    -2.007E-01 1.545E-04 2.003E+04
 ETOT  7  -8.0605988799924    -2.414E-01 1.372E-04 1.579E+03
 ETOT  8  -8.0678607747582    -7.262E-03 3.007E-05 1.094E+02
 ETOT  9  -8.0707765161527    -2.916E-03 1.308E-05 2.060E+01
 ETOT 10  -8.0711498944837    -3.734E-04 5.520E-05 8.092E+00
 ETOT 11  -8.0715719834491    -4.221E-04 5.238E-05 3.113E+00
 ETOT 12  -8.0717549814952    -1.830E-04 3.606E-05 1.062E+00
 ETOT 13  -8.0718817446273    -1.268E-04 4.622E-05 4.725E-01
 ETOT 14  -8.0719764236018    -9.468E-05 3.178E-05 1.978E-01
 ETOT 15  -8.0720506964029    -7.427E-05 3.695E-05 1.237E-01
 ETOT 16  -8.0721079898368    -5.729E-05 2.106E-05 5.723E-02
 ETOT 17  -8.0721541710029    -4.618E-05 2.263E-05 6.657E-02
 ETOT 18  -8.0721927826680    -3.861E-05 1.620E-05 3.891E-02
 ETOT 19  -8.0722249547077    -3.217E-05 1.338E-05 3.971E-02
 ETOT 20  -8.0722529305989    -2.798E-05 9.271E-06 1.804E-02
 ETOT 21  -8.0722774264201    -2.450E-05 7.749E-06 1.847E-02
 ETOT 22  -8.0722994785902    -2.205E-05 9.014E-06 9.708E-03
 ETOT 23  -8.0723197177817    -2.024E-05 4.419E-06 1.403E-02
 ETOT 24  -8.0723386441411    -1.893E-05 9.337E-06 3.598E-03
 ETOT 25  -8.0723565744117    -1.793E-05 3.408E-06 6.141E-03
 ETOT 26  -8.0723737394173    -1.717E-05 9.497E-06 1.520E-03
 ETOT 27  -8.0723903297629    -1.659E-05 3.442E-06 3.729E-03
 ETOT 28  -8.0724064473561    -1.612E-05 9.475E-06 1.438E-03
 ETOT 29  -8.0724222018228    -1.575E-05 3.405E-06 3.833E-03
 ETOT 30  -8.0724376191002    -1.542E-05 9.271E-06 1.303E-03
 
 Cartesian components of stress tensor (hartree/bohr^3)
  sigma(1 1)=  2.89501065E-06  sigma(3 2)=  0.00000000E+00
  sigma(2 2)=  2.89501065E-06  sigma(3 1)=  0.00000000E+00
  sigma(3 3)=  2.89501065E-06  sigma(2 1)=  0.00000000E+00
 
 
 scprqt:  WARNING -
  nstep=   30 was not enough SCF cycles to converge;
  potential residual=  1.303E-03 exceeds tolvrs=  1.000E-08
 
 Integrated electronic density in atomic spheres:
 ------------------------------------------------
 Atom  Sphere_radius  Integrated_density
    1        2.00000          1.50921427
    2        2.00000          1.50921427
 
---OUTPUT-----------------------------------------------------------------------
 
 Cartesian coordinates (xcart) [bohr]
  1.28832033006864E-30  1.28832033006864E-30 -1.28832033006864E-30
  7.32853325544124E+00  7.32853325544124E+00  7.32853325544124E+00
 Reduced coordinates (xred)
  1.31846334576441E-31 -4.39487781921471E-32 -4.39487781921471E-32
  2.50000000000000E-01  2.50000000000000E-01  2.50000000000000E-01
 Cartesian forces (fcart) [Ha/bohr]; max,rms= 1.17574E-27 9.59989E-28 (free atoms)
 -1.17574205011576E-27  1.17574205011576E-27 -2.69049305150365E-43
  1.17574205011576E-27 -1.17574205011576E-27  2.69049305150365E-43
 Reduced forces (fred)
  3.54552721111779E-62 -1.72329294281881E-26  1.72329294281881E-26
 -3.54552721111779E-62  1.72329294281881E-26 -1.72329294281881E-26
 Scale of Primitive Cell (acell) [bohr]
  2.07282222442945E+01  2.07282222442945E+01  2.07282222442945E+01
 Real space primitive translations (rprimd) [bohr]
  1.46570665108825E+01  1.46570665108825E+01  1.31779831549324E-19
  1.31779831549305E-19  1.46570665108825E+01  1.46570665108825E+01
  1.46570665108825E+01  2.63559663098618E-19  1.46570665108825E+01
 Unitary Cell Volume (ucvol) [Bohr^3]=  6.29754343343412E+03
 Angles (23,13,12)= [degrees]
  6.00000000000000E+01  6.00000000000000E+01  6.00000000000000E+01
 Lengths [Bohr]
  2.07282222442945E+01  2.07282222442945E+01  2.07282222442945E+01
 Stress tensor in cartesian coordinates (strten) [Ha/bohr^3]
  2.89501065436196E-06  0.00000000000000E+00  0.00000000000000E+00
  0.00000000000000E+00  2.89501065436196E-06  0.00000000000000E+00
  0.00000000000000E+00  0.00000000000000E+00  2.89501065436196E-06
 Total energy (etotal) [Ha]= -8.07243761910016E+00
 
 Difference of energy with previous step (new-old):
           Absolute (Ha)=-3.82189E+00
           Relative     =-6.20287E-01
 
--- Iteration: ( 3/15) Internal Cycle: (1/1)
--------------------------------------------------------------------------------
 
---SELF-CONSISTENT-FIELD CONVERGENCE--------------------------------------------
 
     iter   Etot(hartree)      deltaE(h)  residm     vres2
 ETOT  1  -8.0725538845728    -8.073E+00 8.982E-06 1.228E+00
 ETOT  2  -8.0726282342420    -7.435E-05 8.867E-06 6.243E-01
 ETOT  3  -8.0726510493718    -2.282E-05 2.931E-06 3.757E-01
 ETOT  4  -8.0726679702321    -1.692E-05 1.071E-05 2.439E-01
 ETOT  5  -8.0726833550319    -1.538E-05 3.315E-06 1.287E-01
 ETOT  6  -8.0726977792928    -1.442E-05 1.229E-05 9.286E-02
 ETOT  7  -8.0727119913529    -1.421E-05 3.710E-06 2.312E-02
 ETOT  8  -8.0727257162024    -1.372E-05 1.358E-05 7.122E-03
