--------------------------------------------------------------------------
[[3029,1],1]: A high-performance Open MPI point-to-point messaging module
was unable to find any relevant network interfaces:

Module: OpenFabrics (openib)
  Host: abipy

Another transport will be used instead, although this may result in
lower performance.
--------------------------------------------------------------------------
  ABINIT 8.10.3
  
  Give name for formatted input file: 
tbase2_2.in
  Give name for formatted output file:
tbase2_2.out
  Give root name for generic input files:
tbase2_2i
  Give root name for generic output files:
tbase2_2o
  Give root name for generic temporary files:
tbase2_2

--- !COMMENT
src_file: m_dtfil.F90
src_line: 1159
message: |
    Output file tbase2_2.out
     already exists.
...


--- !COMMENT
src_file: m_dtfil.F90
src_line: 1183
message: |
    Renaming old tbase2_2.out to tbase2_2.out0002
...


.Version 8.10.3 of ABINIT 
.(MPI version, prepared for a x86_64_linux_gnu5.4 computer) 

.Copyright (C) 1998-2018 ABINIT group . 
 ABINIT comes with ABSOLUTELY NO WARRANTY.
 It is free software, and you are welcome to redistribute it
 under certain conditions (GNU General Public License,
 see ~abinit/COPYING or http://www.gnu.org/copyleft/gpl.txt).

 ABINIT is a project of the Universite Catholique de Louvain,
 Corning Inc. and other collaborators, see ~abinit/doc/developers/contributors.txt .
 Please read https://docs.abinit.org/theory/acknowledgments for suggested
 acknowledgments of the ABINIT effort.
 For more information, see https://www.abinit.org .

.Starting date : Thu 17 Oct 2019.
- ( at 13h42 )
  

 ++++++++++++++++++++++++++++++++++++++++++++++++++++++++++++++++++++++++++++++

 === Build Information === 
  Version       : 8.10.3
  Build target  : x86_64_linux_gnu5.4
  Build date    : 20191016

 === Compiler Suite === 
  C compiler       : gnu5.4
  C++ compiler     : gnu5.4
  Fortran compiler : gnu5.4
  CFLAGS           :  -g -O2 -mtune=native -march=native
  CXXFLAGS         :  -g -O2 -mtune=native -march=native
  FCFLAGS          :  -g -ffree-line-length-none  -fopenmp
  FC_LDFLAGS       : 

 === Optimizations === 
  Debug level        : basic
  Optimization level : standard
  Architecture       : unknown_unknown

 === Multicore === 
  Parallel build : yes
  Parallel I/O   : yes
  openMP support : yes
  GPU support    : no

 === Connectors / Fallbacks === 
  Connectors on : yes
  Fallbacks on  : yes
  DFT flavor    : none
  FFT flavor    : fftw3
  LINALG flavor : atlas
  MATH flavor   : none
  TIMER flavor  : abinit
  TRIO flavor   : netcdf

 === Experimental features === 
  Bindings            : @enable_bindings@
  Exports             : no
  GW double-precision : no

 ++++++++++++++++++++++++++++++++++++++++++++++++++++++++++++++++++++++++++++++


 ++++++++++++++++++++++++++++++++++++++++++++++++++++++++++++++++++++++++++++++
 Default optimizations:
   -O2 -mtune=native -march=native


 Optimizations for 43_ptgroups:
   -O0


 ++++++++++++++++++++++++++++++++++++++++++++++++++++++++++++++++++++++++++++++


 ++++++++++++++++++++++++++++++++++++++++++++++++++++++++++++++++++++++++++++++
 CPP options activated during the build:

                    CC_GNU                   CXX_GNU                    FC_GNU
 
 HAVE_FC_ALLOCATABLE_DT...             HAVE_FC_ASYNC         HAVE_FC_BACKTRACE
 
  HAVE_FC_COMMAND_ARGUMENT      HAVE_FC_COMMAND_LINE        HAVE_FC_CONTIGUOUS
 
           HAVE_FC_CPUTIME              HAVE_FC_EXIT             HAVE_FC_FLUSH
 
             HAVE_FC_GAMMA            HAVE_FC_GETENV   HAVE_FC_IEEE_EXCEPTIONS
 
          HAVE_FC_INT_QUAD             HAVE_FC_IOMSG     HAVE_FC_ISO_C_BINDING
 
  HAVE_FC_ISO_FORTRAN_2008        HAVE_FC_LONG_LINES        HAVE_FC_MOVE_ALLOC
 
           HAVE_FC_PRIVATE         HAVE_FC_PROTECTED         HAVE_FC_STREAM_IO
 
            HAVE_FC_SYSTEM                  HAVE_FFT            HAVE_FFT_FFTW3
 
              HAVE_FFT_MPI           HAVE_FFT_SERIAL          HAVE_FORTRAN2003
 
        HAVE_LIBPAW_ABINIT      HAVE_LIBTETRA_ABINIT               HAVE_LINALG
 
        HAVE_LINALG_SERIAL                  HAVE_MPI                 HAVE_MPI2
 
       HAVE_MPI_IALLREDUCE        HAVE_MPI_IALLTOALL       HAVE_MPI_IALLTOALLV
 
        HAVE_MPI_INTEGER16               HAVE_MPI_IO HAVE_MPI_TYPE_CREATE_S...
 
               HAVE_NETCDF           HAVE_NETCDF_MPI         HAVE_OMP_COLLAPSE
 
               HAVE_OPENMP             HAVE_OS_LINUX         HAVE_TIMER_ABINIT
 
              USE_MACROAVE                                                      
 ++++++++++++++++++++++++++++++++++++++++++++++++++++++++++++++++++++++++++++++

- input  file    -> tbase2_2.in
- output file    -> tbase2_2.out
- root for input  files -> tbase2_2i
- root for output files -> tbase2_2o


--- !WARNING
src_file: m_nctk.F90
src_line: 572
message: |
    netcdf lib does not support MPI-IO and: NetCDF: Parallel operation on file opened for non-parallel access
...

  Asked to delete not existent file: __TMP_FILE__

--- !WARNING
src_file: m_nctk.F90
src_line: 592
message: |
    The netcdf library does not support parallel IO, see message above
    Abinit won't be able to produce files in parallel e.g. when paral_kgb==1 is used.
    Action: install a netcdf4+HDF5 library with MPI-IO support.
...

-instrng: 92 lines of input have been read from file tbase2_2.in


 Please give name of formatted atomic psp file
 iofn2 : for atom type 1, psp file is /home/jovbever/Codes/abinit-8.10.3/tests/Psps_for_tests/01h.pspgth
  read the values zionpsp=  1.0 , pspcod=   2 , lmax=   0

 inpspheads: deduce mpsang = 1, n1xccc = 0.
 invars1 : treat image number: 1

 symlatt : the Bravais lattice is cP (primitive cubic)
  xcart  is defined in input file
 ingeo: takes atomic coordinates from input array xcart

 symlatt : the Bravais lattice is cP (primitive cubic)

 symlatt : the Bravais lattice is cP (primitive cubic)

--- !COMMENT
src_file: m_symfind.F90
src_line: 815
message: |
    The Bravais lattice determined only from the primitive
    vectors, bravais(1)=  7, is more symmetric
    than the real one, iholohedry=  4, obtained by taking into
    account the atomic positions. Start deforming the primitive vector set.
...


 symlatt : the Bravais lattice is tP (primitive tetragonal)
 symspgr : spgroup= 123  P4/m m m   (=D4h^1)
 symspgr : optical characteristics = uniaxial
 Optical axis (in reduced coordinates, real space ) :   1   0   0
 ingeo: angdeg(1:3)=   90.00000000   90.00000000   90.00000000
 inkpts: Sum of 1 k point weights is    1.000000
 invars1 : treat image number: 1

 symlatt : the Bravais lattice is cP (primitive cubic)
  xcart  is defined in input file
 ingeo: takes atomic coordinates from input array xcart

 symlatt : the Bravais lattice is cP (primitive cubic)

 symlatt : the Bravais lattice is cP (primitive cubic)
 symspgr : spgroup= 221  Pm -3 m   (=Oh^1)
 symspgr : optical characteristics = isotropic
 ingeo: angdeg(1:3)=   90.00000000   90.00000000   90.00000000
 inkpts: Sum of 1 k point weights is    1.000000
 invars1 : treat image number: 1

 symlatt : the Bravais lattice is cP (primitive cubic)
  xcart  is defined in input file
 ingeo: takes atomic coordinates from input array xcart

 symlatt : the Bravais lattice is cP (primitive cubic)

 symlatt : the Bravais lattice is cP (primitive cubic)

--- !COMMENT
src_file: m_symfind.F90
src_line: 815
message: |
    The Bravais lattice determined only from the primitive
    vectors, bravais(1)=  7, is more symmetric
    than the real one, iholohedry=  4, obtained by taking into
    account the atomic positions. Start deforming the primitive vector set.
...


 symlatt : the Bravais lattice is tP (primitive tetragonal)
 symspgr : spgroup= 123  P4/m m m   (=D4h^1)
 symspgr : optical characteristics = uniaxial
 Optical axis (in reduced coordinates, real space ) :   1   0   0
 ingeo: angdeg(1:3)=   90.00000000   90.00000000   90.00000000
 inkpts: Sum of 1 k point weights is    1.000000
 invars1 : treat image number: 1

 symlatt : the Bravais lattice is cP (primitive cubic)
  xcart  is defined in input file
 ingeo: takes atomic coordinates from input array xcart

 symlatt : the Bravais lattice is cP (primitive cubic)

 symlatt : the Bravais lattice is cP (primitive cubic)
 symspgr : spgroup= 221  Pm -3 m   (=Oh^1)
 symspgr : optical characteristics = isotropic
 ingeo: angdeg(1:3)=   90.00000000   90.00000000   90.00000000
 inkpts: Sum of 1 k point weights is    1.000000
 invars1 : treat image number: 1

 symlatt : the Bravais lattice is cP (primitive cubic)
  xcart  is defined in input file
 ingeo: takes atomic coordinates from input array xcart

 symlatt : the Bravais lattice is cP (primitive cubic)

 symlatt : the Bravais lattice is cP (primitive cubic)

--- !COMMENT
src_file: m_symfind.F90
src_line: 815
message: |
    The Bravais lattice determined only from the primitive
    vectors, bravais(1)=  7, is more symmetric
    than the real one, iholohedry=  4, obtained by taking into
    account the atomic positions. Start deforming the primitive vector set.
...


 symlatt : the Bravais lattice is tP (primitive tetragonal)
 symspgr : spgroup= 123  P4/m m m   (=D4h^1)
 symspgr : optical characteristics = uniaxial
 Optical axis (in reduced coordinates, real space ) :   1   0   0
 ingeo: angdeg(1:3)=   90.00000000   90.00000000   90.00000000
 inkpts: Sum of 1 k point weights is    1.000000
 invars1 : treat image number: 1

 symlatt : the Bravais lattice is cP (primitive cubic)
  xcart  is defined in input file
 ingeo: takes atomic coordinates from input array xcart

 symlatt : the Bravais lattice is cP (primitive cubic)

 symlatt : the Bravais lattice is cP (primitive cubic)
 symspgr : spgroup= 221  Pm -3 m   (=Oh^1)
 symspgr : optical characteristics = isotropic
 ingeo: angdeg(1:3)=   90.00000000   90.00000000   90.00000000
 inkpts: Sum of 1 k point weights is    1.000000
 invars1 : treat image number: 1

 symlatt : the Bravais lattice is cP (primitive cubic)
  xcart  is defined in input file
 ingeo: takes atomic coordinates from input array xcart

 symlatt : the Bravais lattice is cP (primitive cubic)

 symlatt : the Bravais lattice is cP (primitive cubic)

--- !COMMENT
src_file: m_symfind.F90
src_line: 815
message: |
    The Bravais lattice determined only from the primitive
    vectors, bravais(1)=  7, is more symmetric
    than the real one, iholohedry=  4, obtained by taking into
    account the atomic positions. Start deforming the primitive vector set.
...


 symlatt : the Bravais lattice is tP (primitive tetragonal)
 symspgr : spgroup= 123  P4/m m m   (=D4h^1)
 symspgr : optical characteristics = uniaxial
 Optical axis (in reduced coordinates, real space ) :   1   0   0
 ingeo: angdeg(1:3)=   90.00000000   90.00000000   90.00000000
 inkpts: Sum of 1 k point weights is    1.000000
 invars1 : treat image number: 1

 symlatt : the Bravais lattice is cP (primitive cubic)
  xcart  is defined in input file
 ingeo: takes atomic coordinates from input array xcart

 symlatt : the Bravais lattice is cP (primitive cubic)

 symlatt : the Bravais lattice is cP (primitive cubic)
 symspgr : spgroup= 221  Pm -3 m   (=Oh^1)
 symspgr : optical characteristics = isotropic
 ingeo: angdeg(1:3)=   90.00000000   90.00000000   90.00000000
 inkpts: Sum of 1 k point weights is    1.000000
 invars1 : treat image number: 1

 symlatt : the Bravais lattice is cP (primitive cubic)
  xcart  is defined in input file
 ingeo: takes atomic coordinates from input array xcart

 symlatt : the Bravais lattice is cP (primitive cubic)

 symlatt : the Bravais lattice is cP (primitive cubic)

--- !COMMENT
src_file: m_symfind.F90
src_line: 815
message: |
    The Bravais lattice determined only from the primitive
    vectors, bravais(1)=  7, is more symmetric
    than the real one, iholohedry=  4, obtained by taking into
    account the atomic positions. Start deforming the primitive vector set.
...


 symlatt : the Bravais lattice is tP (primitive tetragonal)
 symspgr : spgroup= 123  P4/m m m   (=D4h^1)
 symspgr : optical characteristics = uniaxial
 Optical axis (in reduced coordinates, real space ) :   1   0   0
 ingeo: angdeg(1:3)=   90.00000000   90.00000000   90.00000000
 inkpts: Sum of 1 k point weights is    1.000000
 invars1 : treat image number: 1

 symlatt : the Bravais lattice is cP (primitive cubic)
  xcart  is defined in input file
 ingeo: takes atomic coordinates from input array xcart

 symlatt : the Bravais lattice is cP (primitive cubic)

 symlatt : the Bravais lattice is cP (primitive cubic)
 symspgr : spgroup= 221  Pm -3 m   (=Oh^1)
 symspgr : optical characteristics = isotropic
 ingeo: angdeg(1:3)=   90.00000000   90.00000000   90.00000000
 inkpts: Sum of 1 k point weights is    1.000000
 invars1 : treat image number: 1

 symlatt : the Bravais lattice is cP (primitive cubic)
  xcart  is defined in input file
 ingeo: takes atomic coordinates from input array xcart

 symlatt : the Bravais lattice is cP (primitive cubic)

 symlatt : the Bravais lattice is cP (primitive cubic)

--- !COMMENT
src_file: m_symfind.F90
src_line: 815
message: |
    The Bravais lattice determined only from the primitive
    vectors, bravais(1)=  7, is more symmetric
    than the real one, iholohedry=  4, obtained by taking into
    account the atomic positions. Start deforming the primitive vector set.
...


 symlatt : the Bravais lattice is tP (primitive tetragonal)
 symspgr : spgroup= 123  P4/m m m   (=D4h^1)
 symspgr : optical characteristics = uniaxial
 Optical axis (in reduced coordinates, real space ) :   1   0   0
 ingeo: angdeg(1:3)=   90.00000000   90.00000000   90.00000000
 inkpts: Sum of 1 k point weights is    1.000000
 invars1 : treat image number: 1

 symlatt : the Bravais lattice is cP (primitive cubic)
  xcart  is defined in input file
 ingeo: takes atomic coordinates from input array xcart

 symlatt : the Bravais lattice is cP (primitive cubic)

 symlatt : the Bravais lattice is cP (primitive cubic)
 symspgr : spgroup= 221  Pm -3 m   (=Oh^1)
 symspgr : optical characteristics = isotropic
 ingeo: angdeg(1:3)=   90.00000000   90.00000000   90.00000000
 inkpts: Sum of 1 k point weights is    1.000000
 inkpts: Sum of 1 k point weights is    1.000000
 chkneu : initialized the occupation numbers for occopt=    1, spin-unpolarized or antiferromagnetic case :
  2.00
 inkpts: Sum of 1 k point weights is    1.000000
 invars2: reading occ(nband*nkpt*nsppol) explicitly
 inkpts: Sum of 1 k point weights is    1.000000
 chkneu : initialized the occupation numbers for occopt=    1, spin-unpolarized or antiferromagnetic case :
  2.00
 inkpts: Sum of 1 k point weights is    1.000000
 invars2: reading occ(nband*nkpt*nsppol) explicitly
 inkpts: Sum of 1 k point weights is    1.000000
 chkneu : initialized the occupation numbers for occopt=    1, spin-unpolarized or antiferromagnetic case :
  2.00
 inkpts: Sum of 1 k point weights is    1.000000
 invars2: reading occ(nband*nkpt*nsppol) explicitly
 inkpts: Sum of 1 k point weights is    1.000000
 chkneu : initialized the occupation numbers for occopt=    1, spin-unpolarized or antiferromagnetic case :
  2.00
 inkpts: Sum of 1 k point weights is    1.000000
 invars2: reading occ(nband*nkpt*nsppol) explicitly
 inkpts: Sum of 1 k point weights is    1.000000
 chkneu : initialized the occupation numbers for occopt=    1, spin-unpolarized or antiferromagnetic case :
  2.00
 inkpts: Sum of 1 k point weights is    1.000000
 invars2: reading occ(nband*nkpt*nsppol) explicitly
 inkpts: Sum of 1 k point weights is    1.000000
 chkneu : initialized the occupation numbers for occopt=    1, spin-unpolarized or antiferromagnetic case :
  2.00
 inkpts: Sum of 1 k point weights is    1.000000
 invars2: reading occ(nband*nkpt*nsppol) explicitly
npfft, npband, npspinor and npkpt:     1    1    1    4

--- !WARNING
src_file: m_mpinfo.F90
src_line: 2525
message: |
    nproc_kpt=4 >= nkpt=1* nsppol=1
    The number of processors is larger than nkpt*nsppol. This is a waste.
...

mpi_setup: mkmem  undefined in the input file.Use default mkmem  = nkpt
 mpi_setup: With nkpt_me=1 and mkmem  = 1, ground state wf handled in core.
mpi_setup: mkqmem undefined in the input file.Use default mkqmem = nkpt
 mpi_setup: With nkpt_me=1 and mkqmem = 1, ground state wf handled in core.
mpi_setup: mk1mem undefined in the input file.Use default mk1mem = nkpt
 mpi_setup: With nkpt_me=1 and mk1mem = 1, ground state wf handled in core.

--- !WARNING
src_file: m_mpi_setup.F90
src_line: 699
message: |
    Your number of spins*k-points (=1) will not distribute correctly
    with the current number of processors (=4).
    You will leave some empty.
    YOU ARE STRONGLY ADVICED TO ACTIVATE AUTOMATIC PARALLELIZATION!
    PUT "AUTOPARAL=1" IN THE INPUT FILE.
...

 For input ecut=  1.000000E+01 best grid ngfft=      30      30      30
       max ecut=  1.110330E+01

 ==== FFT mesh ====
  FFT mesh divisions ........................    30   30   30
  Augmented FFT divisions ...................    31   31   30
  FFT algorithm .............................   312
  FFT cache size ............................    16
 getmpw: optimal value of mpw= 752
npfft, npband, npspinor and npkpt:     1    1    1    4

--- !WARNING
src_file: m_mpinfo.F90
src_line: 2525
message: |
    nproc_kpt=4 >= nkpt=1* nsppol=2
    The number of processors is larger than nkpt*nsppol. This is a waste.
...

mpi_setup: mkmem  undefined in the input file.Use default mkmem  = nkpt
 mpi_setup: With nkpt_me=1 and mkmem  = 1, ground state wf handled in core.
mpi_setup: mkqmem undefined in the input file.Use default mkqmem = nkpt
 mpi_setup: With nkpt_me=1 and mkqmem = 1, ground state wf handled in core.
mpi_setup: mk1mem undefined in the input file.Use default mk1mem = nkpt
 mpi_setup: With nkpt_me=1 and mk1mem = 1, ground state wf handled in core.

--- !WARNING
src_file: m_mpi_setup.F90
src_line: 699
message: |
    Your number of spins*k-points (=2) will not distribute correctly
    with the current number of processors (=4).
    You will leave some empty.
    YOU ARE STRONGLY ADVICED TO ACTIVATE AUTOMATIC PARALLELIZATION!
    PUT "AUTOPARAL=1" IN THE INPUT FILE.
...

 For input ecut=  1.000000E+01 best grid ngfft=      30      30      30
       max ecut=  1.110330E+01

 ==== FFT mesh ====
  FFT mesh divisions ........................    30   30   30
  Augmented FFT divisions ...................    31   31   30
  FFT algorithm .............................   312
  FFT cache size ............................    16
 getmpw: optimal value of mpw= 752
npfft, npband, npspinor and npkpt:     1    1    1    4

--- !WARNING
src_file: m_mpinfo.F90
src_line: 2525
message: |
    nproc_kpt=4 >= nkpt=1* nsppol=1
    The number of processors is larger than nkpt*nsppol. This is a waste.
...

mpi_setup: mkmem  undefined in the input file.Use default mkmem  = nkpt
 mpi_setup: With nkpt_me=1 and mkmem  = 1, ground state wf handled in core.
mpi_setup: mkqmem undefined in the input file.Use default mkqmem = nkpt
 mpi_setup: With nkpt_me=1 and mkqmem = 1, ground state wf handled in core.
mpi_setup: mk1mem undefined in the input file.Use default mk1mem = nkpt
 mpi_setup: With nkpt_me=1 and mk1mem = 1, ground state wf handled in core.

--- !WARNING
src_file: m_mpi_setup.F90
src_line: 699
message: |
    Your number of spins*k-points (=1) will not distribute correctly
    with the current number of processors (=4).
    You will leave some empty.
    YOU ARE STRONGLY ADVICED TO ACTIVATE AUTOMATIC PARALLELIZATION!
    PUT "AUTOPARAL=1" IN THE INPUT FILE.
...

 For input ecut=  1.500000E+01 best grid ngfft=      36      36      36
       max ecut=  1.598876E+01

 ==== FFT mesh ====
  FFT mesh divisions ........................    36   36   36
  Augmented FFT divisions ...................    37   37   36
  FFT algorithm .............................   312
  FFT cache size ............................    16
 getmpw: optimal value of mpw= 1389
npfft, npband, npspinor and npkpt:     1    1    1    4

--- !WARNING
src_file: m_mpinfo.F90
src_line: 2525
message: |
    nproc_kpt=4 >= nkpt=1* nsppol=2
    The number of processors is larger than nkpt*nsppol. This is a waste.
...

mpi_setup: mkmem  undefined in the input file.Use default mkmem  = nkpt
 mpi_setup: With nkpt_me=1 and mkmem  = 1, ground state wf handled in core.
mpi_setup: mkqmem undefined in the input file.Use default mkqmem = nkpt
 mpi_setup: With nkpt_me=1 and mkqmem = 1, ground state wf handled in core.
mpi_setup: mk1mem undefined in the input file.Use default mk1mem = nkpt
 mpi_setup: With nkpt_me=1 and mk1mem = 1, ground state wf handled in core.

--- !WARNING
src_file: m_mpi_setup.F90
src_line: 699
message: |
    Your number of spins*k-points (=2) will not distribute correctly
    with the current number of processors (=4).
    You will leave some empty.
    YOU ARE STRONGLY ADVICED TO ACTIVATE AUTOMATIC PARALLELIZATION!
    PUT "AUTOPARAL=1" IN THE INPUT FILE.
...

 For input ecut=  1.500000E+01 best grid ngfft=      36      36      36
       max ecut=  1.598876E+01

 ==== FFT mesh ====
  FFT mesh divisions ........................    36   36   36
  Augmented FFT divisions ...................    37   37   36
  FFT algorithm .............................   312
  FFT cache size ............................    16
 getmpw: optimal value of mpw= 1389
npfft, npband, npspinor and npkpt:     1    1    1    4

--- !WARNING
src_file: m_mpinfo.F90
src_line: 2525
message: |
    nproc_kpt=4 >= nkpt=1* nsppol=1
    The number of processors is larger than nkpt*nsppol. This is a waste.
...

mpi_setup: mkmem  undefined in the input file.Use default mkmem  = nkpt
 mpi_setup: With nkpt_me=1 and mkmem  = 1, ground state wf handled in core.
mpi_setup: mkqmem undefined in the input file.Use default mkqmem = nkpt
 mpi_setup: With nkpt_me=1 and mkqmem = 1, ground state wf handled in core.
mpi_setup: mk1mem undefined in the input file.Use default mk1mem = nkpt
 mpi_setup: With nkpt_me=1 and mk1mem = 1, ground state wf handled in core.

--- !WARNING
src_file: m_mpi_setup.F90
src_line: 699
message: |
    Your number of spins*k-points (=1) will not distribute correctly
    with the current number of processors (=4).
    You will leave some empty.
    YOU ARE STRONGLY ADVICED TO ACTIVATE AUTOMATIC PARALLELIZATION!
    PUT "AUTOPARAL=1" IN THE INPUT FILE.
...

 For input ecut=  2.000000E+01 best grid ngfft=      45      45      45
       max ecut=  2.388444E+01

 ==== FFT mesh ====
  FFT mesh divisions ........................    45   45   45
  Augmented FFT divisions ...................    45   45   45
  FFT algorithm .............................   312
  FFT cache size ............................    16
 getmpw: optimal value of mpw= 2169
npfft, npband, npspinor and npkpt:     1    1    1    4

--- !WARNING
src_file: m_mpinfo.F90
src_line: 2525
message: |
    nproc_kpt=4 >= nkpt=1* nsppol=2
    The number of processors is larger than nkpt*nsppol. This is a waste.
...

mpi_setup: mkmem  undefined in the input file.Use default mkmem  = nkpt
 mpi_setup: With nkpt_me=1 and mkmem  = 1, ground state wf handled in core.
mpi_setup: mkqmem undefined in the input file.Use default mkqmem = nkpt
 mpi_setup: With nkpt_me=1 and mkqmem = 1, ground state wf handled in core.
mpi_setup: mk1mem undefined in the input file.Use default mk1mem = nkpt
 mpi_setup: With nkpt_me=1 and mk1mem = 1, ground state wf handled in core.

--- !WARNING
src_file: m_mpi_setup.F90
src_line: 699
message: |
    Your number of spins*k-points (=2) will not distribute correctly
    with the current number of processors (=4).
    You will leave some empty.
    YOU ARE STRONGLY ADVICED TO ACTIVATE AUTOMATIC PARALLELIZATION!
    PUT "AUTOPARAL=1" IN THE INPUT FILE.
...

 For input ecut=  2.000000E+01 best grid ngfft=      45      45      45
       max ecut=  2.388444E+01

 ==== FFT mesh ====
  FFT mesh divisions ........................    45   45   45
  Augmented FFT divisions ...................    45   45   45
  FFT algorithm .............................   312
  FFT cache size ............................    16
 getmpw: optimal value of mpw= 2169
npfft, npband, npspinor and npkpt:     1    1    1    4

--- !WARNING
src_file: m_mpinfo.F90
src_line: 2525
message: |
    nproc_kpt=4 >= nkpt=1* nsppol=1
    The number of processors is larger than nkpt*nsppol. This is a waste.
...

mpi_setup: mkmem  undefined in the input file.Use default mkmem  = nkpt
 mpi_setup: With nkpt_me=1 and mkmem  = 1, ground state wf handled in core.
mpi_setup: mkqmem undefined in the input file.Use default mkqmem = nkpt
 mpi_setup: With nkpt_me=1 and mkqmem = 1, ground state wf handled in core.
mpi_setup: mk1mem undefined in the input file.Use default mk1mem = nkpt
 mpi_setup: With nkpt_me=1 and mk1mem = 1, ground state wf handled in core.

--- !WARNING
src_file: m_mpi_setup.F90
src_line: 699
message: |
    Your number of spins*k-points (=1) will not distribute correctly
    with the current number of processors (=4).
    You will leave some empty.
    YOU ARE STRONGLY ADVICED TO ACTIVATE AUTOMATIC PARALLELIZATION!
    PUT "AUTOPARAL=1" IN THE INPUT FILE.
...

 For input ecut=  2.500000E+01 best grid ngfft=      48      48      48
       max ecut=  2.842446E+01

 ==== FFT mesh ====
  FFT mesh divisions ........................    48   48   48
  Augmented FFT divisions ...................    49   49   48
  FFT algorithm .............................   312
  FFT cache size ............................    16
 getmpw: optimal value of mpw= 3016
npfft, npband, npspinor and npkpt:     1    1    1    4

--- !WARNING
src_file: m_mpinfo.F90
src_line: 2525
message: |
    nproc_kpt=4 >= nkpt=1* nsppol=2
    The number of processors is larger than nkpt*nsppol. This is a waste.
...

mpi_setup: mkmem  undefined in the input file.Use default mkmem  = nkpt
 mpi_setup: With nkpt_me=1 and mkmem  = 1, ground state wf handled in core.
mpi_setup: mkqmem undefined in the input file.Use default mkqmem = nkpt
 mpi_setup: With nkpt_me=1 and mkqmem = 1, ground state wf handled in core.
mpi_setup: mk1mem undefined in the input file.Use default mk1mem = nkpt
 mpi_setup: With nkpt_me=1 and mk1mem = 1, ground state wf handled in core.

--- !WARNING
src_file: m_mpi_setup.F90
src_line: 699
message: |
    Your number of spins*k-points (=2) will not distribute correctly
    with the current number of processors (=4).
    You will leave some empty.
    YOU ARE STRONGLY ADVICED TO ACTIVATE AUTOMATIC PARALLELIZATION!
    PUT "AUTOPARAL=1" IN THE INPUT FILE.
...

 For input ecut=  2.500000E+01 best grid ngfft=      48      48      48
       max ecut=  2.842446E+01

 ==== FFT mesh ====
  FFT mesh divisions ........................    48   48   48
  Augmented FFT divisions ...................    49   49   48
  FFT algorithm .............................   312
  FFT cache size ............................    16
 getmpw: optimal value of mpw= 3016
npfft, npband, npspinor and npkpt:     1    1    1    4

--- !WARNING
src_file: m_mpinfo.F90
src_line: 2525
message: |
    nproc_kpt=4 >= nkpt=1* nsppol=1
    The number of processors is larger than nkpt*nsppol. This is a waste.
...

mpi_setup: mkmem  undefined in the input file.Use default mkmem  = nkpt
 mpi_setup: With nkpt_me=1 and mkmem  = 1, ground state wf handled in core.
mpi_setup: mkqmem undefined in the input file.Use default mkqmem = nkpt
 mpi_setup: With nkpt_me=1 and mkqmem = 1, ground state wf handled in core.
mpi_setup: mk1mem undefined in the input file.Use default mk1mem = nkpt
 mpi_setup: With nkpt_me=1 and mk1mem = 1, ground state wf handled in core.

--- !WARNING
src_file: m_mpi_setup.F90
src_line: 699
message: |
    Your number of spins*k-points (=1) will not distribute correctly
    with the current number of processors (=4).
    You will leave some empty.
    YOU ARE STRONGLY ADVICED TO ACTIVATE AUTOMATIC PARALLELIZATION!
    PUT "AUTOPARAL=1" IN THE INPUT FILE.
...

 For input ecut=  3.000000E+01 best grid ngfft=      50      50      50
       max ecut=  3.084251E+01

 ==== FFT mesh ====
  FFT mesh divisions ........................    50   50   50
  Augmented FFT divisions ...................    51   51   50
  FFT algorithm .............................   312
  FFT cache size ............................    16
 getmpw: optimal value of mpw= 3905
npfft, npband, npspinor and npkpt:     1    1    1    4

--- !WARNING
src_file: m_mpinfo.F90
src_line: 2525
message: |
    nproc_kpt=4 >= nkpt=1* nsppol=2
    The number of processors is larger than nkpt*nsppol. This is a waste.
...

mpi_setup: mkmem  undefined in the input file.Use default mkmem  = nkpt
 mpi_setup: With nkpt_me=1 and mkmem  = 1, ground state wf handled in core.
mpi_setup: mkqmem undefined in the input file.Use default mkqmem = nkpt
 mpi_setup: With nkpt_me=1 and mkqmem = 1, ground state wf handled in core.
mpi_setup: mk1mem undefined in the input file.Use default mk1mem = nkpt
 mpi_setup: With nkpt_me=1 and mk1mem = 1, ground state wf handled in core.

--- !WARNING
src_file: m_mpi_setup.F90
src_line: 699
message: |
    Your number of spins*k-points (=2) will not distribute correctly
    with the current number of processors (=4).
    You will leave some empty.
    YOU ARE STRONGLY ADVICED TO ACTIVATE AUTOMATIC PARALLELIZATION!
    PUT "AUTOPARAL=1" IN THE INPUT FILE.
...

 For input ecut=  3.000000E+01 best grid ngfft=      50      50      50
       max ecut=  3.084251E+01

 ==== FFT mesh ====
  FFT mesh divisions ........................    50   50   50
  Augmented FFT divisions ...................    51   51   50
  FFT algorithm .............................   312
  FFT cache size ............................    16
 getmpw: optimal value of mpw= 3905
npfft, npband, npspinor and npkpt:     1    1    1    4

--- !WARNING
src_file: m_mpinfo.F90
src_line: 2525
message: |
    nproc_kpt=4 >= nkpt=1* nsppol=1
    The number of processors is larger than nkpt*nsppol. This is a waste.
...

mpi_setup: mkmem  undefined in the input file.Use default mkmem  = nkpt
 mpi_setup: With nkpt_me=1 and mkmem  = 1, ground state wf handled in core.
mpi_setup: mkqmem undefined in the input file.Use default mkqmem = nkpt
 mpi_setup: With nkpt_me=1 and mkqmem = 1, ground state wf handled in core.
mpi_setup: mk1mem undefined in the input file.Use default mk1mem = nkpt
 mpi_setup: With nkpt_me=1 and mk1mem = 1, ground state wf handled in core.

--- !WARNING
src_file: m_mpi_setup.F90
src_line: 699
message: |
    Your number of spins*k-points (=1) will not distribute correctly
    with the current number of processors (=4).
    You will leave some empty.
    YOU ARE STRONGLY ADVICED TO ACTIVATE AUTOMATIC PARALLELIZATION!
    PUT "AUTOPARAL=1" IN THE INPUT FILE.
...

 For input ecut=  3.500000E+01 best grid ngfft=      54      54      54
       max ecut=  3.597471E+01

 ==== FFT mesh ====
  FFT mesh divisions ........................    54   54   54
  Augmented FFT divisions ...................    55   55   54
  FFT algorithm .............................   312
  FFT cache size ............................    16
 getmpw: optimal value of mpw= 4922
npfft, npband, npspinor and npkpt:     1    1    1    4

--- !WARNING
src_file: m_mpinfo.F90
src_line: 2525
message: |
    nproc_kpt=4 >= nkpt=1* nsppol=2
    The number of processors is larger than nkpt*nsppol. This is a waste.
...

mpi_setup: mkmem  undefined in the input file.Use default mkmem  = nkpt
 mpi_setup: With nkpt_me=1 and mkmem  = 1, ground state wf handled in core.
mpi_setup: mkqmem undefined in the input file.Use default mkqmem = nkpt
 mpi_setup: With nkpt_me=1 and mkqmem = 1, ground state wf handled in core.
mpi_setup: mk1mem undefined in the input file.Use default mk1mem = nkpt
 mpi_setup: With nkpt_me=1 and mk1mem = 1, ground state wf handled in core.

--- !WARNING
src_file: m_mpi_setup.F90
src_line: 699
message: |
    Your number of spins*k-points (=2) will not distribute correctly
    with the current number of processors (=4).
    You will leave some empty.
    YOU ARE STRONGLY ADVICED TO ACTIVATE AUTOMATIC PARALLELIZATION!
    PUT "AUTOPARAL=1" IN THE INPUT FILE.
...

 For input ecut=  3.500000E+01 best grid ngfft=      54      54      54
       max ecut=  3.597471E+01

 ==== FFT mesh ====
  FFT mesh divisions ........................    54   54   54
  Augmented FFT divisions ...................    55   55   54
  FFT algorithm .............................   312
  FFT cache size ............................    16
 getmpw: optimal value of mpw= 4922

 DATASET   11 : space group P4/m m m (#123); Bravais tP (primitive tetrag.)

--- !COMMENT
src_file: m_memeval.F90
src_line: 2457
message: |
    Despite there is only a local part to pseudopotential(s),
    lmnmax and lnmax are set to 1.
...


 getdim_nloc : deduce lmnmax  =   1, lnmax  =   1,
                      lmnmaxso=   1, lnmaxso=   1.
memory : analysis of memory needs
================================================================================
 Values of the parameters that define the memory need for DATASET 11.
     intxc =       0    ionmov =       2      iscf =       7    lmnmax =       1
     lnmax =       1     mgfft =      30  mpssoang =       1    mqgrid =    3001
     natom =       2  nloc_mem =       1    nspden =       1   nspinor =       1
    nsppol =       1      nsym =      16    n1xccc =       0    ntypat =       1
    occopt =       1   xclevel =       1
-    mband =           1        mffmem =           1         mkmem =           1
       mpw =         752          nfft =       27000          nkpt =           1
================================================================================
P This job should need less than                       7.796 Mbytes of memory.
  Rough estimation (10% accuracy) of disk space for files :
_ WF disk file :      0.013 Mbytes ; DEN or POT disk file :      0.208 Mbytes.
================================================================================

 Biggest array : f_fftgr(disk), with      3.2979 MBytes.
 memana : allocated an array of      3.298 Mbytes, for testing purposes.
 memana: allocated       7.796Mbytes, for testing purposes. 
 The job will continue.

 DATASET   12 : space group Pm -3 m (#221); Bravais cP (primitive cubic)

--- !COMMENT
src_file: m_memeval.F90
src_line: 2457
message: |
    Despite there is only a local part to pseudopotential(s),
    lmnmax and lnmax are set to 1.
...


 getdim_nloc : deduce lmnmax  =   1, lnmax  =   1,
                      lmnmaxso=   1, lnmaxso=   1.
memory : analysis of memory needs
================================================================================
 Values of the parameters that define the memory need for DATASET 12.
     intxc =       0    ionmov =       0      iscf =       7    lmnmax =       1
     lnmax =       1     mgfft =      30  mpssoang =       1    mqgrid =    3001
     natom =       1  nloc_mem =       1    nspden =       2   nspinor =       1
    nsppol =       2      nsym =      48    n1xccc =       0    ntypat =       1
    occopt =       2   xclevel =       1
-    mband =           1        mffmem =           1         mkmem =           1
       mpw =         752          nfft =       27000          nkpt =           1
================================================================================
P This job should need less than                      11.907 Mbytes of memory.
  Rough estimation (10% accuracy) of disk space for files :
_ WF disk file :      0.025 Mbytes ; DEN or POT disk file :      0.414 Mbytes.
================================================================================

 Biggest array : f_fftgr(disk), with      6.5938 MBytes.
 memana : allocated an array of      6.594 Mbytes, for testing purposes.
 memana: allocated      11.907Mbytes, for testing purposes. 
 The job will continue.

 DATASET   21 : space group P4/m m m (#123); Bravais tP (primitive tetrag.)

--- !COMMENT
src_file: m_memeval.F90
src_line: 2457
message: |
    Despite there is only a local part to pseudopotential(s),
    lmnmax and lnmax are set to 1.
...


 getdim_nloc : deduce lmnmax  =   1, lnmax  =   1,
                      lmnmaxso=   1, lnmaxso=   1.
memory : analysis of memory needs
================================================================================
 Values of the parameters that define the memory need for DATASET 21.
     intxc =       0    ionmov =       2      iscf =       7    lmnmax =       1
     lnmax =       1     mgfft =      36  mpssoang =       1    mqgrid =    3001
     natom =       2  nloc_mem =       1    nspden =       1   nspinor =       1
    nsppol =       1      nsym =      16    n1xccc =       0    ntypat =       1
    occopt =       1   xclevel =       1
-    mband =           1        mffmem =           1         mkmem =           1
       mpw =        1389          nfft =       46656          nkpt =           1
================================================================================
P This job should need less than                      13.197 Mbytes of memory.
  Rough estimation (10% accuracy) of disk space for files :
_ WF disk file :      0.023 Mbytes ; DEN or POT disk file :      0.358 Mbytes.
================================================================================

 Biggest array : f_fftgr(disk), with      5.6973 MBytes.
 memana : allocated an array of      5.697 Mbytes, for testing purposes.
 memana: allocated      13.197Mbytes, for testing purposes. 
 The job will continue.

 DATASET   22 : space group Pm -3 m (#221); Bravais cP (primitive cubic)

--- !COMMENT
src_file: m_memeval.F90
src_line: 2457
message: |
    Despite there is only a local part to pseudopotential(s),
    lmnmax and lnmax are set to 1.
...


 getdim_nloc : deduce lmnmax  =   1, lnmax  =   1,
                      lmnmaxso=   1, lnmaxso=   1.
memory : analysis of memory needs
================================================================================
 Values of the parameters that define the memory need for DATASET 22.
     intxc =       0    ionmov =       0      iscf =       7    lmnmax =       1
     lnmax =       1     mgfft =      36  mpssoang =       1    mqgrid =    3001
     natom =       1  nloc_mem =       1    nspden =       2   nspinor =       1
    nsppol =       2      nsym =      48    n1xccc =       0    ntypat =       1
    occopt =       2   xclevel =       1
-    mband =           1        mffmem =           1         mkmem =           1
       mpw =        1389          nfft =       46656          nkpt =           1
================================================================================
P This job should need less than                      20.307 Mbytes of memory.
  Rough estimation (10% accuracy) of disk space for files :
_ WF disk file :      0.044 Mbytes ; DEN or POT disk file :      0.714 Mbytes.
================================================================================

 Biggest array : f_fftgr(disk), with     11.3926 MBytes.
 memana : allocated an array of     11.393 Mbytes, for testing purposes.
 memana: allocated      20.307Mbytes, for testing purposes. 
 The job will continue.

 DATASET   31 : space group P4/m m m (#123); Bravais tP (primitive tetrag.)

--- !COMMENT
src_file: m_memeval.F90
src_line: 2457
message: |
    Despite there is only a local part to pseudopotential(s),
    lmnmax and lnmax are set to 1.
...


 getdim_nloc : deduce lmnmax  =   1, lnmax  =   1,
                      lmnmaxso=   1, lnmaxso=   1.
memory : analysis of memory needs
================================================================================
 Values of the parameters that define the memory need for DATASET 31.
     intxc =       0    ionmov =       2      iscf =       7    lmnmax =       1
     lnmax =       1     mgfft =      45  mpssoang =       1    mqgrid =    3001
     natom =       2  nloc_mem =       1    nspden =       1   nspinor =       1
    nsppol =       1      nsym =      16    n1xccc =       0    ntypat =       1
    occopt =       1   xclevel =       1
-    mband =           1        mffmem =           1         mkmem =           1
       mpw =        2169          nfft =       91125          nkpt =           1
================================================================================
P This job should need less than                      25.147 Mbytes of memory.
  Rough estimation (10% accuracy) of disk space for files :
_ WF disk file :      0.035 Mbytes ; DEN or POT disk file :      0.697 Mbytes.
================================================================================

 Biggest array : f_fftgr(disk), with     11.1257 MBytes.
 memana : allocated an array of     11.126 Mbytes, for testing purposes.
 memana: allocated      25.147Mbytes, for testing purposes. 
 The job will continue.

 DATASET   32 : space group Pm -3 m (#221); Bravais cP (primitive cubic)

--- !COMMENT
src_file: m_memeval.F90
src_line: 2457
message: |
    Despite there is only a local part to pseudopotential(s),
    lmnmax and lnmax are set to 1.
...


 getdim_nloc : deduce lmnmax  =   1, lnmax  =   1,
                      lmnmaxso=   1, lnmaxso=   1.
memory : analysis of memory needs
================================================================================
 Values of the parameters that define the memory need for DATASET 32.
     intxc =       0    ionmov =       0      iscf =       7    lmnmax =       1
     lnmax =       1     mgfft =      45  mpssoang =       1    mqgrid =    3001
     natom =       1  nloc_mem =       1    nspden =       2   nspinor =       1
    nsppol =       2      nsym =      48    n1xccc =       0    ntypat =       1
    occopt =       2   xclevel =       1
-    mband =           1        mffmem =           1         mkmem =           1
       mpw =        2169          nfft =       91125          nkpt =           1
================================================================================
P This job should need less than                      39.042 Mbytes of memory.
  Rough estimation (10% accuracy) of disk space for files :
_ WF disk file :      0.068 Mbytes ; DEN or POT disk file :      1.392 Mbytes.
================================================================================

 Biggest array : f_fftgr(disk), with     22.2493 MBytes.
 memana : allocated an array of     22.249 Mbytes, for testing purposes.
 memana: allocated      39.042Mbytes, for testing purposes. 
 The job will continue.

 DATASET   41 : space group P4/m m m (#123); Bravais tP (primitive tetrag.)

--- !COMMENT
src_file: m_memeval.F90
src_line: 2457
message: |
    Despite there is only a local part to pseudopotential(s),
    lmnmax and lnmax are set to 1.
...


 getdim_nloc : deduce lmnmax  =   1, lnmax  =   1,
                      lmnmaxso=   1, lnmaxso=   1.
memory : analysis of memory needs
================================================================================
 Values of the parameters that define the memory need for DATASET 41.
     intxc =       0    ionmov =       2      iscf =       7    lmnmax =       1
     lnmax =       1     mgfft =      48  mpssoang =       1    mqgrid =    3001
     natom =       2  nloc_mem =       1    nspden =       1   nspinor =       1
    nsppol =       1      nsym =      16    n1xccc =       0    ntypat =       1
    occopt =       1   xclevel =       1
-    mband =           1        mffmem =           1         mkmem =           1
       mpw =        3016          nfft =      110592          nkpt =           1
================================================================================
P This job should need less than                      30.656 Mbytes of memory.
  Rough estimation (10% accuracy) of disk space for files :
_ WF disk file :      0.048 Mbytes ; DEN or POT disk file :      0.846 Mbytes.
================================================================================

 Biggest array : f_fftgr(disk), with     13.5020 MBytes.
 memana : allocated an array of     13.502 Mbytes, for testing purposes.
 memana: allocated      30.656Mbytes, for testing purposes. 
 The job will continue.

 DATASET   42 : space group Pm -3 m (#221); Bravais cP (primitive cubic)

--- !COMMENT
src_file: m_memeval.F90
src_line: 2457
message: |
    Despite there is only a local part to pseudopotential(s),
    lmnmax and lnmax are set to 1.
...


 getdim_nloc : deduce lmnmax  =   1, lnmax  =   1,
                      lmnmaxso=   1, lnmaxso=   1.
memory : analysis of memory needs
================================================================================
 Values of the parameters that define the memory need for DATASET 42.
     intxc =       0    ionmov =       0      iscf =       7    lmnmax =       1
     lnmax =       1     mgfft =      48  mpssoang =       1    mqgrid =    3001
     natom =       1  nloc_mem =       1    nspden =       2   nspinor =       1
    nsppol =       2      nsym =      48    n1xccc =       0    ntypat =       1
    occopt =       2   xclevel =       1
-    mband =           1        mffmem =           1         mkmem =           1
       mpw =        3016          nfft =      110592          nkpt =           1
================================================================================
P This job should need less than                      47.521 Mbytes of memory.
  Rough estimation (10% accuracy) of disk space for files :
_ WF disk file :      0.094 Mbytes ; DEN or POT disk file :      1.690 Mbytes.
================================================================================

 Biggest array : f_fftgr(disk), with     27.0020 MBytes.
 memana : allocated an array of     27.002 Mbytes, for testing purposes.
 memana: allocated      47.521Mbytes, for testing purposes. 
 The job will continue.

 DATASET   51 : space group P4/m m m (#123); Bravais tP (primitive tetrag.)

--- !COMMENT
src_file: m_memeval.F90
src_line: 2457
message: |
    Despite there is only a local part to pseudopotential(s),
    lmnmax and lnmax are set to 1.
...


 getdim_nloc : deduce lmnmax  =   1, lnmax  =   1,
                      lmnmaxso=   1, lnmaxso=   1.
memory : analysis of memory needs
================================================================================
 Values of the parameters that define the memory need for DATASET 51.
     intxc =       0    ionmov =       2      iscf =       7    lmnmax =       1
     lnmax =       1     mgfft =      50  mpssoang =       1    mqgrid =    3001
     natom =       2  nloc_mem =       1    nspden =       1   nspinor =       1
    nsppol =       1      nsym =      16    n1xccc =       0    ntypat =       1
    occopt =       1   xclevel =       1
-    mband =           1        mffmem =           1         mkmem =           1
       mpw =        3905          nfft =      125000          nkpt =           1
================================================================================
P This job should need less than                      34.692 Mbytes of memory.
  Rough estimation (10% accuracy) of disk space for files :
_ WF disk file :      0.062 Mbytes ; DEN or POT disk file :      0.956 Mbytes.
================================================================================

 Biggest array : f_fftgr(disk), with     15.2608 MBytes.
 memana : allocated an array of     15.261 Mbytes, for testing purposes.
 memana: allocated      34.692Mbytes, for testing purposes. 
 The job will continue.

 DATASET   52 : space group Pm -3 m (#221); Bravais cP (primitive cubic)

--- !COMMENT
src_file: m_memeval.F90
src_line: 2457
message: |
    Despite there is only a local part to pseudopotential(s),
    lmnmax and lnmax are set to 1.
...


 getdim_nloc : deduce lmnmax  =   1, lnmax  =   1,
                      lmnmaxso=   1, lnmaxso=   1.
memory : analysis of memory needs
================================================================================
 Values of the parameters that define the memory need for DATASET 52.
     intxc =       0    ionmov =       0      iscf =       7    lmnmax =       1
     lnmax =       1     mgfft =      50  mpssoang =       1    mqgrid =    3001
     natom =       1  nloc_mem =       1    nspden =       2   nspinor =       1
    nsppol =       2      nsym =      48    n1xccc =       0    ntypat =       1
    occopt =       2   xclevel =       1
-    mband =           1        mffmem =           1         mkmem =           1
       mpw =        3905          nfft =      125000          nkpt =           1
================================================================================
P This job should need less than                      53.755 Mbytes of memory.
  Rough estimation (10% accuracy) of disk space for files :
_ WF disk file :      0.121 Mbytes ; DEN or POT disk file :      1.909 Mbytes.
================================================================================

 Biggest array : f_fftgr(disk), with     30.5196 MBytes.
 memana : allocated an array of     30.520 Mbytes, for testing purposes.
 memana: allocated      53.755Mbytes, for testing purposes. 
 The job will continue.

 DATASET   61 : space group P4/m m m (#123); Bravais tP (primitive tetrag.)

--- !COMMENT
src_file: m_memeval.F90
src_line: 2457
message: |
    Despite there is only a local part to pseudopotential(s),
    lmnmax and lnmax are set to 1.
...


 getdim_nloc : deduce lmnmax  =   1, lnmax  =   1,
                      lmnmaxso=   1, lnmaxso=   1.
memory : analysis of memory needs
================================================================================
 Values of the parameters that define the memory need for DATASET 61.
     intxc =       0    ionmov =       2      iscf =       7    lmnmax =       1
     lnmax =       1     mgfft =      54  mpssoang =       1    mqgrid =    3001
     natom =       2  nloc_mem =       1    nspden =       1   nspinor =       1
    nsppol =       1      nsym =      16    n1xccc =       0    ntypat =       1
    occopt =       1   xclevel =       1
-    mband =           1        mffmem =           1         mkmem =           1
       mpw =        4922          nfft =      157464          nkpt =           1
================================================================================
P This job should need less than                      43.589 Mbytes of memory.
  Rough estimation (10% accuracy) of disk space for files :
_ WF disk file :      0.077 Mbytes ; DEN or POT disk file :      1.203 Mbytes.
================================================================================

 Biggest array : f_fftgr(disk), with     19.2237 MBytes.
 memana : allocated an array of     19.224 Mbytes, for testing purposes.
 memana: allocated      43.589Mbytes, for testing purposes. 
 The job will continue.

 DATASET   62 : space group Pm -3 m (#221); Bravais cP (primitive cubic)

--- !COMMENT
src_file: m_memeval.F90
src_line: 2457
message: |
    Despite there is only a local part to pseudopotential(s),
    lmnmax and lnmax are set to 1.
...


 getdim_nloc : deduce lmnmax  =   1, lnmax  =   1,
                      lmnmaxso=   1, lnmaxso=   1.
memory : analysis of memory needs
================================================================================
 Values of the parameters that define the memory need for DATASET 62.
     intxc =       0    ionmov =       0      iscf =       7    lmnmax =       1
     lnmax =       1     mgfft =      54  mpssoang =       1    mqgrid =    3001
     natom =       1  nloc_mem =       1    nspden =       2   nspinor =       1
    nsppol =       2      nsym =      48    n1xccc =       0    ntypat =       1
    occopt =       2   xclevel =       1
-    mband =           1        mffmem =           1         mkmem =           1
       mpw =        4922          nfft =      157464          nkpt =           1
================================================================================
P This job should need less than                      67.605 Mbytes of memory.
  Rough estimation (10% accuracy) of disk space for files :
_ WF disk file :      0.152 Mbytes ; DEN or POT disk file :      2.405 Mbytes.
================================================================================

 Biggest array : f_fftgr(disk), with     38.4454 MBytes.
 memana : allocated an array of     38.445 Mbytes, for testing purposes.
 memana: allocated      67.605Mbytes, for testing purposes. 
 The job will continue.

--- !WARNING
src_file: m_outvars.F90
src_line: 221
message: |
    output of OUT.nc has been disabled. Too many datasets
...

--------------------------------------------------------------------------------
------------- Echo of variables that govern the present computation ------------
--------------------------------------------------------------------------------
-
- outvars: echo of selected default values                                      
-   iomode0 =  0 , fftalg0 =312 , wfoptalg0 =  0
-
- outvars: echo of global parameters not present in the input file              
-  max_nthreads =    8
-
 -outvars: echo values of preprocessed input variables --------

--- !WARNING
src_file: m_outvars.F90
src_line: 221
message: |
    output of OUT.nc has been disabled. Too many datasets
...

            acell      1.0000000000E+01  1.0000000000E+01  1.0000000000E+01 Bohr
              amu      1.00794000E+00
        bs_loband11         0
        bs_loband12         0       0
        bs_loband21         0
        bs_loband22         0       0
        bs_loband31         0
        bs_loband32         0       0
        bs_loband41         0
        bs_loband42         0       0
        bs_loband51         0
        bs_loband52         0       0
        bs_loband61         0
        bs_loband62         0       0
           diemac      2.00000000E+00
             ecut11    1.00000000E+01 Hartree
             ecut12    1.00000000E+01 Hartree
             ecut21    1.50000000E+01 Hartree
             ecut22    1.50000000E+01 Hartree
             ecut31    2.00000000E+01 Hartree
             ecut32    2.00000000E+01 Hartree
             ecut41    2.50000000E+01 Hartree
             ecut42    2.50000000E+01 Hartree
             ecut51    3.00000000E+01 Hartree
             ecut52    3.00000000E+01 Hartree
             ecut61    3.50000000E+01 Hartree
             ecut62    3.50000000E+01 Hartree
-          fftalg         312
           ionmov11         2
           ionmov12         0
           ionmov21         2
           ionmov22         0
           ionmov31         2
           ionmov32         0
           ionmov41         2
           ionmov42         0
           ionmov51         2
           ionmov52         0
           ionmov61         2
           ionmov62         0
           istwfk        2
           jdtset       11   12   21   22   31   32   41   42   51   52
                        61   62
           kptopt           0
P           mkmem           1
            natom11         2
            natom12         1
            natom21         2
            natom22         1
            natom31         2
            natom32         1
            natom41         2
            natom42         1
            natom51         2
            natom52         1
            natom61         2
            natom62         1
            nband11         1
            nband12         1       1
            nband21         1
            nband22         1       1
            nband31         1
            nband32         1       1
            nband41         1
            nband42         1       1
            nband51         1
            nband52         1       1
            nband61         1
            nband62         1       1
           ndtset          12
            ngfft11        30      30      30
            ngfft12        30      30      30
            ngfft21        36      36      36
            ngfft22        36      36      36
            ngfft31        45      45      45
            ngfft32        45      45      45
            ngfft41        48      48      48
            ngfft42        48      48      48
            ngfft51        50      50      50
            ngfft52        50      50      50
            ngfft61        54      54      54
            ngfft62        54      54      54
             nkpt           1
           nspden11         1
           nspden12         2
           nspden21         1
           nspden22         2
           nspden31         1
           nspden32         2
           nspden41         1
           nspden42         2
           nspden51         1
           nspden52         2
           nspden61         1
           nspden62         2
           nsppol11         1
           nsppol12         2
           nsppol21         1
           nsppol22         2
           nsppol31         1
           nsppol32         2
           nsppol41         1
           nsppol42         2
           nsppol51         1
           nsppol52         2
           nsppol61         1
           nsppol62         2
            nstep          10
             nsym11        16
             nsym12        48
             nsym21        16
             nsym22        48
             nsym31        16
             nsym32        48
             nsym41        16
             nsym42        48
             nsym51        16
             nsym52        48
             nsym61        16
             nsym62        48
            ntime11        10
            ntime12         1
            ntime21        10
            ntime22         1
            ntime31        10
            ntime32         1
            ntime41        10
            ntime42         1
            ntime51        10
            ntime52         1
            ntime61        10
            ntime62         1
           ntypat           1
              occ11    2.000000
              occ12    1.000000
                       0.000000
              occ21    2.000000
              occ22    1.000000
                       0.000000
              occ31    2.000000
              occ32    1.000000
                       0.000000
              occ41    2.000000
              occ42    1.000000
                       0.000000
              occ51    2.000000
              occ52    1.000000
                       0.000000
              occ61    2.000000
              occ62    1.000000
                       0.000000
           occopt11         1
           occopt12         2
           occopt21         1
           occopt22         2
           occopt31         1
           occopt32         2
           occopt41         1
           occopt42         2
           occopt51         1
           occopt52         2
           occopt61         1
           occopt62         2
        optforces11         1
        optforces12         2
        optforces21         1
        optforces22         2
        optforces31         1
        optforces32         2
        optforces41         1
        optforces42         2
        optforces51         1
        optforces52         2
        optforces61         1
        optforces62         2
          spgroup11       123
          spgroup12       221
          spgroup21       123
          spgroup22       221
          spgroup31       123
          spgroup32       221
          spgroup41       123
          spgroup42       221
          spgroup51       123
          spgroup52       221
          spgroup61       123
          spgroup62       221
           spinat12    0.0000000000E+00  0.0000000000E+00  1.0000000000E+00
           spinat22    0.0000000000E+00  0.0000000000E+00  1.0000000000E+00
           spinat32    0.0000000000E+00  0.0000000000E+00  1.0000000000E+00
           spinat42    0.0000000000E+00  0.0000000000E+00  1.0000000000E+00
           spinat52    0.0000000000E+00  0.0000000000E+00  1.0000000000E+00
           spinat62    0.0000000000E+00  0.0000000000E+00  1.0000000000E+00
           symafm11      1    1    1    1    1    1    1    1    1    1
                         1    1    1    1    1    1
           symafm12      1    1    1    1    1    1    1    1    1    1
                         1    1    1    1    1    1    1    1    1    1
                         1    1    1    1    1    1    1    1    1    1
                         1    1    1    1    1    1    1    1    1    1
                         1    1    1    1    1    1    1    1
           symafm21      1    1    1    1    1    1    1    1    1    1
                         1    1    1    1    1    1
           symafm22      1    1    1    1    1    1    1    1    1    1
                         1    1    1    1    1    1    1    1    1    1
                         1    1    1    1    1    1    1    1    1    1
                         1    1    1    1    1    1    1    1    1    1
                         1    1    1    1    1    1    1    1
           symafm31      1    1    1    1    1    1    1    1    1    1
                         1    1    1    1    1    1
           symafm32      1    1    1    1    1    1    1    1    1    1
                         1    1    1    1    1    1    1    1    1    1
                         1    1    1    1    1    1    1    1    1    1
                         1    1    1    1    1    1    1    1    1    1
                         1    1    1    1    1    1    1    1
           symafm41      1    1    1    1    1    1    1    1    1    1
                         1    1    1    1    1    1
           symafm42      1    1    1    1    1    1    1    1    1    1
                         1    1    1    1    1    1    1    1    1    1
                         1    1    1    1    1    1    1    1    1    1
                         1    1    1    1    1    1    1    1    1    1
                         1    1    1    1    1    1    1    1
           symafm51      1    1    1    1    1    1    1    1    1    1
                         1    1    1    1    1    1
           symafm52      1    1    1    1    1    1    1    1    1    1
                         1    1    1    1    1    1    1    1    1    1
                         1    1    1    1    1    1    1    1    1    1
                         1    1    1    1    1    1    1    1    1    1
                         1    1    1    1    1    1    1    1
           symafm61      1    1    1    1    1    1    1    1    1    1
                         1    1    1    1    1    1
           symafm62      1    1    1    1    1    1    1    1    1    1
                         1    1    1    1    1    1    1    1    1    1
                         1    1    1    1    1    1    1    1    1    1
                         1    1    1    1    1    1    1    1    1    1
                         1    1    1    1    1    1    1    1
           symrel11    1  0  0   0  1  0   0  0  1      -1  0  0   0 -1  0   0  0 -1
                      -1  0  0   0  1  0   0  0 -1       1  0  0   0 -1  0   0  0  1
                      -1  0  0   0 -1  0   0  0  1       1  0  0   0  1  0   0  0 -1
                       1  0  0   0 -1  0   0  0 -1      -1  0  0   0  1  0   0  0  1
                       1  0  0   0  0  1   0  1  0      -1  0  0   0  0 -1   0 -1  0
                      -1  0  0   0  0  1   0 -1  0       1  0  0   0  0 -1   0  1  0
                      -1  0  0   0  0 -1   0  1  0       1  0  0   0  0  1   0 -1  0
                       1  0  0   0  0 -1   0 -1  0      -1  0  0   0  0  1   0  1  0
           symrel12    1  0  0   0  1  0   0  0  1      -1  0  0   0 -1  0   0  0 -1
                      -1  0  0   0  1  0   0  0 -1       1  0  0   0 -1  0   0  0  1
                      -1  0  0   0 -1  0   0  0  1       1  0  0   0  1  0   0  0 -1
                       1  0  0   0 -1  0   0  0 -1      -1  0  0   0  1  0   0  0  1
                       0  1  0   1  0  0   0  0  1       0 -1  0  -1  0  0   0  0 -1
                       0 -1  0   1  0  0   0  0 -1       0  1  0  -1  0  0   0  0  1
                       0 -1  0  -1  0  0   0  0  1       0  1  0   1  0  0   0  0 -1
                       0  1  0  -1  0  0   0  0 -1       0 -1  0   1  0  0   0  0  1
                       0  0  1   1  0  0   0  1  0       0  0 -1  -1  0  0   0 -1  0
                       0  0 -1   1  0  0   0 -1  0       0  0  1  -1  0  0   0  1  0
                       0  0 -1  -1  0  0   0  1  0       0  0  1   1  0  0   0 -1  0
                       0  0  1  -1  0  0   0 -1  0       0  0 -1   1  0  0   0  1  0
                       1  0  0   0  0  1   0  1  0      -1  0  0   0  0 -1   0 -1  0
                      -1  0  0   0  0  1   0 -1  0       1  0  0   0  0 -1   0  1  0
                      -1  0  0   0  0 -1   0  1  0       1  0  0   0  0  1   0 -1  0
                       1  0  0   0  0 -1   0 -1  0      -1  0  0   0  0  1   0  1  0
                       0  1  0   0  0  1   1  0  0       0 -1  0   0  0 -1  -1  0  0
                       0 -1  0   0  0  1  -1  0  0       0  1  0   0  0 -1   1  0  0
                       0 -1  0   0  0 -1   1  0  0       0  1  0   0  0  1  -1  0  0
                       0  1  0   0  0 -1  -1  0  0       0 -1  0   0  0  1   1  0  0
                       0  0  1   0  1  0   1  0  0       0  0 -1   0 -1  0  -1  0  0
                       0  0 -1   0  1  0  -1  0  0       0  0  1   0 -1  0   1  0  0
                       0  0 -1   0 -1  0   1  0  0       0  0  1   0  1  0  -1  0  0
                       0  0  1   0 -1  0  -1  0  0       0  0 -1   0  1  0   1  0  0
           symrel21    1  0  0   0  1  0   0  0  1      -1  0  0   0 -1  0   0  0 -1
                      -1  0  0   0  1  0   0  0 -1       1  0  0   0 -1  0   0  0  1
                      -1  0  0   0 -1  0   0  0  1       1  0  0   0  1  0   0  0 -1
                       1  0  0   0 -1  0   0  0 -1      -1  0  0   0  1  0   0  0  1
                       1  0  0   0  0  1   0  1  0      -1  0  0   0  0 -1   0 -1  0
                      -1  0  0   0  0  1   0 -1  0       1  0  0   0  0 -1   0  1  0
                      -1  0  0   0  0 -1   0  1  0       1  0  0   0  0  1   0 -1  0
                       1  0  0   0  0 -1   0 -1  0      -1  0  0   0  0  1   0  1  0
           symrel22    1  0  0   0  1  0   0  0  1      -1  0  0   0 -1  0   0  0 -1
                      -1  0  0   0  1  0   0  0 -1       1  0  0   0 -1  0   0  0  1
                      -1  0  0   0 -1  0   0  0  1       1  0  0   0  1  0   0  0 -1
                       1  0  0   0 -1  0   0  0 -1      -1  0  0   0  1  0   0  0  1
                       0  1  0   1  0  0   0  0  1       0 -1  0  -1  0  0   0  0 -1
                       0 -1  0   1  0  0   0  0 -1       0  1  0  -1  0  0   0  0  1
                       0 -1  0  -1  0  0   0  0  1       0  1  0   1  0  0   0  0 -1
                       0  1  0  -1  0  0   0  0 -1       0 -1  0   1  0  0   0  0  1
                       0  0  1   1  0  0   0  1  0       0  0 -1  -1  0  0   0 -1  0
                       0  0 -1   1  0  0   0 -1  0       0  0  1  -1  0  0   0  1  0
                       0  0 -1  -1  0  0   0  1  0       0  0  1   1  0  0   0 -1  0
                       0  0  1  -1  0  0   0 -1  0       0  0 -1   1  0  0   0  1  0
                       1  0  0   0  0  1   0  1  0      -1  0  0   0  0 -1   0 -1  0
                      -1  0  0   0  0  1   0 -1  0       1  0  0   0  0 -1   0  1  0
                      -1  0  0   0  0 -1   0  1  0       1  0  0   0  0  1   0 -1  0
                       1  0  0   0  0 -1   0 -1  0      -1  0  0   0  0  1   0  1  0
                       0  1  0   0  0  1   1  0  0       0 -1  0   0  0 -1  -1  0  0
                       0 -1  0   0  0  1  -1  0  0       0  1  0   0  0 -1   1  0  0
                       0 -1  0   0  0 -1   1  0  0       0  1  0   0  0  1  -1  0  0
                       0  1  0   0  0 -1  -1  0  0       0 -1  0   0  0  1   1  0  0
                       0  0  1   0  1  0   1  0  0       0  0 -1   0 -1  0  -1  0  0
                       0  0 -1   0  1  0  -1  0  0       0  0  1   0 -1  0   1  0  0
                       0  0 -1   0 -1  0   1  0  0       0  0  1   0  1  0  -1  0  0
                       0  0  1   0 -1  0  -1  0  0       0  0 -1   0  1  0   1  0  0
           symrel31    1  0  0   0  1  0   0  0  1      -1  0  0   0 -1  0   0  0 -1
                      -1  0  0   0  1  0   0  0 -1       1  0  0   0 -1  0   0  0  1
                      -1  0  0   0 -1  0   0  0  1       1  0  0   0  1  0   0  0 -1
                       1  0  0   0 -1  0   0  0 -1      -1  0  0   0  1  0   0  0  1
                       1  0  0   0  0  1   0  1  0      -1  0  0   0  0 -1   0 -1  0
                      -1  0  0   0  0  1   0 -1  0       1  0  0   0  0 -1   0  1  0
                      -1  0  0   0  0 -1   0  1  0       1  0  0   0  0  1   0 -1  0
                       1  0  0   0  0 -1   0 -1  0      -1  0  0   0  0  1   0  1  0
           symrel32    1  0  0   0  1  0   0  0  1      -1  0  0   0 -1  0   0  0 -1
                      -1  0  0   0  1  0   0  0 -1       1  0  0   0 -1  0   0  0  1
                      -1  0  0   0 -1  0   0  0  1       1  0  0   0  1  0   0  0 -1
                       1  0  0   0 -1  0   0  0 -1      -1  0  0   0  1  0   0  0  1
                       0  1  0   1  0  0   0  0  1       0 -1  0  -1  0  0   0  0 -1
                       0 -1  0   1  0  0   0  0 -1       0  1  0  -1  0  0   0  0  1
                       0 -1  0  -1  0  0   0  0  1       0  1  0   1  0  0   0  0 -1
                       0  1  0  -1  0  0   0  0 -1       0 -1  0   1  0  0   0  0  1
                       0  0  1   1  0  0   0  1  0       0  0 -1  -1  0  0   0 -1  0
                       0  0 -1   1  0  0   0 -1  0       0  0  1  -1  0  0   0  1  0
                       0  0 -1  -1  0  0   0  1  0       0  0  1   1  0  0   0 -1  0
                       0  0  1  -1  0  0   0 -1  0       0  0 -1   1  0  0   0  1  0
                       1  0  0   0  0  1   0  1  0      -1  0  0   0  0 -1   0 -1  0
                      -1  0  0   0  0  1   0 -1  0       1  0  0   0  0 -1   0  1  0
                      -1  0  0   0  0 -1   0  1  0       1  0  0   0  0  1   0 -1  0
                       1  0  0   0  0 -1   0 -1  0      -1  0  0   0  0  1   0  1  0
                       0  1  0   0  0  1   1  0  0       0 -1  0   0  0 -1  -1  0  0
                       0 -1  0   0  0  1  -1  0  0       0  1  0   0  0 -1   1  0  0
                       0 -1  0   0  0 -1   1  0  0       0  1  0   0  0  1  -1  0  0
                       0  1  0   0  0 -1  -1  0  0       0 -1  0   0  0  1   1  0  0
                       0  0  1   0  1  0   1  0  0       0  0 -1   0 -1  0  -1  0  0
                       0  0 -1   0  1  0  -1  0  0       0  0  1   0 -1  0   1  0  0
                       0  0 -1   0 -1  0   1  0  0       0  0  1   0  1  0  -1  0  0
                       0  0  1   0 -1  0  -1  0  0       0  0 -1   0  1  0   1  0  0
           symrel41    1  0  0   0  1  0   0  0  1      -1  0  0   0 -1  0   0  0 -1
                      -1  0  0   0  1  0   0  0 -1       1  0  0   0 -1  0   0  0  1
                      -1  0  0   0 -1  0   0  0  1       1  0  0   0  1  0   0  0 -1
                       1  0  0   0 -1  0   0  0 -1      -1  0  0   0  1  0   0  0  1
                       1  0  0   0  0  1   0  1  0      -1  0  0   0  0 -1   0 -1  0
                      -1  0  0   0  0  1   0 -1  0       1  0  0   0  0 -1   0  1  0
                      -1  0  0   0  0 -1   0  1  0       1  0  0   0  0  1   0 -1  0
                       1  0  0   0  0 -1   0 -1  0      -1  0  0   0  0  1   0  1  0
           symrel42    1  0  0   0  1  0   0  0  1      -1  0  0   0 -1  0   0  0 -1
                      -1  0  0   0  1  0   0  0 -1       1  0  0   0 -1  0   0  0  1
                      -1  0  0   0 -1  0   0  0  1       1  0  0   0  1  0   0  0 -1
                       1  0  0   0 -1  0   0  0 -1      -1  0  0   0  1  0   0  0  1
                       0  1  0   1  0  0   0  0  1       0 -1  0  -1  0  0   0  0 -1
                       0 -1  0   1  0  0   0  0 -1       0  1  0  -1  0  0   0  0  1
                       0 -1  0  -1  0  0   0  0  1       0  1  0   1  0  0   0  0 -1
                       0  1  0  -1  0  0   0  0 -1       0 -1  0   1  0  0   0  0  1
                       0  0  1   1  0  0   0  1  0       0  0 -1  -1  0  0   0 -1  0
                       0  0 -1   1  0  0   0 -1  0       0  0  1  -1  0  0   0  1  0
                       0  0 -1  -1  0  0   0  1  0       0  0  1   1  0  0   0 -1  0
                       0  0  1  -1  0  0   0 -1  0       0  0 -1   1  0  0   0  1  0
                       1  0  0   0  0  1   0  1  0      -1  0  0   0  0 -1   0 -1  0
                      -1  0  0   0  0  1   0 -1  0       1  0  0   0  0 -1   0  1  0
                      -1  0  0   0  0 -1   0  1  0       1  0  0   0  0  1   0 -1  0
                       1  0  0   0  0 -1   0 -1  0      -1  0  0   0  0  1   0  1  0
                       0  1  0   0  0  1   1  0  0       0 -1  0   0  0 -1  -1  0  0
                       0 -1  0   0  0  1  -1  0  0       0  1  0   0  0 -1   1  0  0
                       0 -1  0   0  0 -1   1  0  0       0  1  0   0  0  1  -1  0  0
                       0  1  0   0  0 -1  -1  0  0       0 -1  0   0  0  1   1  0  0
                       0  0  1   0  1  0   1  0  0       0  0 -1   0 -1  0  -1  0  0
                       0  0 -1   0  1  0  -1  0  0       0  0  1   0 -1  0   1  0  0
                       0  0 -1   0 -1  0   1  0  0       0  0  1   0  1  0  -1  0  0
                       0  0  1   0 -1  0  -1  0  0       0  0 -1   0  1  0   1  0  0
           symrel51    1  0  0   0  1  0   0  0  1      -1  0  0   0 -1  0   0  0 -1
                      -1  0  0   0  1  0   0  0 -1       1  0  0   0 -1  0   0  0  1
                      -1  0  0   0 -1  0   0  0  1       1  0  0   0  1  0   0  0 -1
                       1  0  0   0 -1  0   0  0 -1      -1  0  0   0  1  0   0  0  1
                       1  0  0   0  0  1   0  1  0      -1  0  0   0  0 -1   0 -1  0
                      -1  0  0   0  0  1   0 -1  0       1  0  0   0  0 -1   0  1  0
                      -1  0  0   0  0 -1   0  1  0       1  0  0   0  0  1   0 -1  0
                       1  0  0   0  0 -1   0 -1  0      -1  0  0   0  0  1   0  1  0
           symrel52    1  0  0   0  1  0   0  0  1      -1  0  0   0 -1  0   0  0 -1
                      -1  0  0   0  1  0   0  0 -1       1  0  0   0 -1  0   0  0  1
                      -1  0  0   0 -1  0   0  0  1       1  0  0   0  1  0   0  0 -1
                       1  0  0   0 -1  0   0  0 -1      -1  0  0   0  1  0   0  0  1
                       0  1  0   1  0  0   0  0  1       0 -1  0  -1  0  0   0  0 -1
                       0 -1  0   1  0  0   0  0 -1       0  1  0  -1  0  0   0  0  1
                       0 -1  0  -1  0  0   0  0  1       0  1  0   1  0  0   0  0 -1
                       0  1  0  -1  0  0   0  0 -1       0 -1  0   1  0  0   0  0  1
                       0  0  1   1  0  0   0  1  0       0  0 -1  -1  0  0   0 -1  0
                       0  0 -1   1  0  0   0 -1  0       0  0  1  -1  0  0   0  1  0
                       0  0 -1  -1  0  0   0  1  0       0  0  1   1  0  0   0 -1  0
                       0  0  1  -1  0  0   0 -1  0       0  0 -1   1  0  0   0  1  0
                       1  0  0   0  0  1   0  1  0      -1  0  0   0  0 -1   0 -1  0
                      -1  0  0   0  0  1   0 -1  0       1  0  0   0  0 -1   0  1  0
                      -1  0  0   0  0 -1   0  1  0       1  0  0   0  0  1   0 -1  0
                       1  0  0   0  0 -1   0 -1  0      -1  0  0   0  0  1   0  1  0
                       0  1  0   0  0  1   1  0  0       0 -1  0   0  0 -1  -1  0  0
                       0 -1  0   0  0  1  -1  0  0       0  1  0   0  0 -1   1  0  0
                       0 -1  0   0  0 -1   1  0  0       0  1  0   0  0  1  -1  0  0
                       0  1  0   0  0 -1  -1  0  0       0 -1  0   0  0  1   1  0  0
                       0  0  1   0  1  0   1  0  0       0  0 -1   0 -1  0  -1  0  0
                       0  0 -1   0  1  0  -1  0  0       0  0  1   0 -1  0   1  0  0
                       0  0 -1   0 -1  0   1  0  0       0  0  1   0  1  0  -1  0  0
                       0  0  1   0 -1  0  -1  0  0       0  0 -1   0  1  0   1  0  0
           symrel61    1  0  0   0  1  0   0  0  1      -1  0  0   0 -1  0   0  0 -1
                      -1  0  0   0  1  0   0  0 -1       1  0  0   0 -1  0   0  0  1
                      -1  0  0   0 -1  0   0  0  1       1  0  0   0  1  0   0  0 -1
                       1  0  0   0 -1  0   0  0 -1      -1  0  0   0  1  0   0  0  1
                       1  0  0   0  0  1   0  1  0      -1  0  0   0  0 -1   0 -1  0
                      -1  0  0   0  0  1   0 -1  0       1  0  0   0  0 -1   0  1  0
                      -1  0  0   0  0 -1   0  1  0       1  0  0   0  0  1   0 -1  0
                       1  0  0   0  0 -1   0 -1  0      -1  0  0   0  0  1   0  1  0
           symrel62    1  0  0   0  1  0   0  0  1      -1  0  0   0 -1  0   0  0 -1
                      -1  0  0   0  1  0   0  0 -1       1  0  0   0 -1  0   0  0  1
                      -1  0  0   0 -1  0   0  0  1       1  0  0   0  1  0   0  0 -1
                       1  0  0   0 -1  0   0  0 -1      -1  0  0   0  1  0   0  0  1
                       0  1  0   1  0  0   0  0  1       0 -1  0  -1  0  0   0  0 -1
                       0 -1  0   1  0  0   0  0 -1       0  1  0  -1  0  0   0  0  1
                       0 -1  0  -1  0  0   0  0  1       0  1  0   1  0  0   0  0 -1
                       0  1  0  -1  0  0   0  0 -1       0 -1  0   1  0  0   0  0  1
                       0  0  1   1  0  0   0  1  0       0  0 -1  -1  0  0   0 -1  0
                       0  0 -1   1  0  0   0 -1  0       0  0  1  -1  0  0   0  1  0
                       0  0 -1  -1  0  0   0  1  0       0  0  1   1  0  0   0 -1  0
                       0  0  1  -1  0  0   0 -1  0       0  0 -1   1  0  0   0  1  0
                       1  0  0   0  0  1   0  1  0      -1  0  0   0  0 -1   0 -1  0
                      -1  0  0   0  0  1   0 -1  0       1  0  0   0  0 -1   0  1  0
                      -1  0  0   0  0 -1   0  1  0       1  0  0   0  0  1   0 -1  0
                       1  0  0   0  0 -1   0 -1  0      -1  0  0   0  0  1   0  1  0
                       0  1  0   0  0  1   1  0  0       0 -1  0   0  0 -1  -1  0  0
                       0 -1  0   0  0  1  -1  0  0       0  1  0   0  0 -1   1  0  0
                       0 -1  0   0  0 -1   1  0  0       0  1  0   0  0  1  -1  0  0
                       0  1  0   0  0 -1  -1  0  0       0 -1  0   0  0  1   1  0  0
                       0  0  1   0  1  0   1  0  0       0  0 -1   0 -1  0  -1  0  0
                       0  0 -1   0  1  0  -1  0  0       0  0  1   0 -1  0   1  0  0
                       0  0 -1   0 -1  0   1  0  0       0  0  1   0  1  0  -1  0  0
                       0  0  1   0 -1  0  -1  0  0       0  0 -1   0  1  0   1  0  0
            tnons11    0.0000000  0.0000000  0.0000000     0.0000000  0.0000000  0.0000000
                       0.0000000  0.0000000  0.0000000     0.0000000  0.0000000  0.0000000
                       0.0000000  0.0000000  0.0000000     0.0000000  0.0000000  0.0000000
                       0.0000000  0.0000000  0.0000000     0.0000000  0.0000000  0.0000000
                       0.0000000  0.0000000  0.0000000     0.0000000  0.0000000  0.0000000
                       0.0000000  0.0000000  0.0000000     0.0000000  0.0000000  0.0000000
                       0.0000000  0.0000000  0.0000000     0.0000000  0.0000000  0.0000000
                       0.0000000  0.0000000  0.0000000     0.0000000  0.0000000  0.0000000
            tnons12    0.0000000  0.0000000  0.0000000     0.0000000  0.0000000  0.0000000
                       0.0000000  0.0000000  0.0000000     0.0000000  0.0000000  0.0000000
                       0.0000000  0.0000000  0.0000000     0.0000000  0.0000000  0.0000000
[...]
                       0.0000000  0.0000000  0.0000000     0.0000000  0.0000000  0.0000000
                       0.0000000  0.0000000  0.0000000     0.0000000  0.0000000  0.0000000
            tnons41    0.0000000  0.0000000  0.0000000     0.0000000  0.0000000  0.0000000
                       0.0000000  0.0000000  0.0000000     0.0000000  0.0000000  0.0000000
                       0.0000000  0.0000000  0.0000000     0.0000000  0.0000000  0.0000000
                       0.0000000  0.0000000  0.0000000     0.0000000  0.0000000  0.0000000
                       0.0000000  0.0000000  0.0000000     0.0000000  0.0000000  0.0000000
                       0.0000000  0.0000000  0.0000000     0.0000000  0.0000000  0.0000000
                       0.0000000  0.0000000  0.0000000     0.0000000  0.0000000  0.0000000
                       0.0000000  0.0000000  0.0000000     0.0000000  0.0000000  0.0000000
            tnons42    0.0000000  0.0000000  0.0000000     0.0000000  0.0000000  0.0000000
                       0.0000000  0.0000000  0.0000000     0.0000000  0.0000000  0.0000000
                       0.0000000  0.0000000  0.0000000     0.0000000  0.0000000  0.0000000
                       0.0000000  0.0000000  0.0000000     0.0000000  0.0000000  0.0000000
                       0.0000000  0.0000000  0.0000000     0.0000000  0.0000000  0.0000000
                       0.0000000  0.0000000  0.0000000     0.0000000  0.0000000  0.0000000
                       0.0000000  0.0000000  0.0000000     0.0000000  0.0000000  0.0000000
                       0.0000000  0.0000000  0.0000000     0.0000000  0.0000000  0.0000000
                       0.0000000  0.0000000  0.0000000     0.0000000  0.0000000  0.0000000
                       0.0000000  0.0000000  0.0000000     0.0000000  0.0000000  0.0000000
                       0.0000000  0.0000000  0.0000000     0.0000000  0.0000000  0.0000000
                       0.0000000  0.0000000  0.0000000     0.0000000  0.0000000  0.0000000
                       0.0000000  0.0000000  0.0000000     0.0000000  0.0000000  0.0000000
                       0.0000000  0.0000000  0.0000000     0.0000000  0.0000000  0.0000000
                       0.0000000  0.0000000  0.0000000     0.0000000  0.0000000  0.0000000
                       0.0000000  0.0000000  0.0000000     0.0000000  0.0000000  0.0000000
                       0.0000000  0.0000000  0.0000000     0.0000000  0.0000000  0.0000000
                       0.0000000  0.0000000  0.0000000     0.0000000  0.0000000  0.0000000
                       0.0000000  0.0000000  0.0000000     0.0000000  0.0000000  0.0000000
                       0.0000000  0.0000000  0.0000000     0.0000000  0.0000000  0.0000000
                       0.0000000  0.0000000  0.0000000     0.0000000  0.0000000  0.0000000
                       0.0000000  0.0000000  0.0000000     0.0000000  0.0000000  0.0000000
                       0.0000000  0.0000000  0.0000000     0.0000000  0.0000000  0.0000000
                       0.0000000  0.0000000  0.0000000     0.0000000  0.0000000  0.0000000
            tnons51    0.0000000  0.0000000  0.0000000     0.0000000  0.0000000  0.0000000
                       0.0000000  0.0000000  0.0000000     0.0000000  0.0000000  0.0000000
                       0.0000000  0.0000000  0.0000000     0.0000000  0.0000000  0.0000000
                       0.0000000  0.0000000  0.0000000     0.0000000  0.0000000  0.0000000
                       0.0000000  0.0000000  0.0000000     0.0000000  0.0000000  0.0000000
                       0.0000000  0.0000000  0.0000000     0.0000000  0.0000000  0.0000000
                       0.0000000  0.0000000  0.0000000     0.0000000  0.0000000  0.0000000
                       0.0000000  0.0000000  0.0000000     0.0000000  0.0000000  0.0000000
            tnons52    0.0000000  0.0000000  0.0000000     0.0000000  0.0000000  0.0000000
                       0.0000000  0.0000000  0.0000000     0.0000000  0.0000000  0.0000000
                       0.0000000  0.0000000  0.0000000     0.0000000  0.0000000  0.0000000
                       0.0000000  0.0000000  0.0000000     0.0000000  0.0000000  0.0000000
                       0.0000000  0.0000000  0.0000000     0.0000000  0.0000000  0.0000000
                       0.0000000  0.0000000  0.0000000     0.0000000  0.0000000  0.0000000
                       0.0000000  0.0000000  0.0000000     0.0000000  0.0000000  0.0000000
                       0.0000000  0.0000000  0.0000000     0.0000000  0.0000000  0.0000000
                       0.0000000  0.0000000  0.0000000     0.0000000  0.0000000  0.0000000
                       0.0000000  0.0000000  0.0000000     0.0000000  0.0000000  0.0000000
                       0.0000000  0.0000000  0.0000000     0.0000000  0.0000000  0.0000000
                       0.0000000  0.0000000  0.0000000     0.0000000  0.0000000  0.0000000
                       0.0000000  0.0000000  0.0000000     0.0000000  0.0000000  0.0000000
                       0.0000000  0.0000000  0.0000000     0.0000000  0.0000000  0.0000000
                       0.0000000  0.0000000  0.0000000     0.0000000  0.0000000  0.0000000
                       0.0000000  0.0000000  0.0000000     0.0000000  0.0000000  0.0000000
                       0.0000000  0.0000000  0.0000000     0.0000000  0.0000000  0.0000000
                       0.0000000  0.0000000  0.0000000     0.0000000  0.0000000  0.0000000
                       0.0000000  0.0000000  0.0000000     0.0000000  0.0000000  0.0000000
                       0.0000000  0.0000000  0.0000000     0.0000000  0.0000000  0.0000000
                       0.0000000  0.0000000  0.0000000     0.0000000  0.0000000  0.0000000
                       0.0000000  0.0000000  0.0000000     0.0000000  0.0000000  0.0000000
                       0.0000000  0.0000000  0.0000000     0.0000000  0.0000000  0.0000000
                       0.0000000  0.0000000  0.0000000     0.0000000  0.0000000  0.0000000
            tnons61    0.0000000  0.0000000  0.0000000     0.0000000  0.0000000  0.0000000
                       0.0000000  0.0000000  0.0000000     0.0000000  0.0000000  0.0000000
                       0.0000000  0.0000000  0.0000000     0.0000000  0.0000000  0.0000000
                       0.0000000  0.0000000  0.0000000     0.0000000  0.0000000  0.0000000
                       0.0000000  0.0000000  0.0000000     0.0000000  0.0000000  0.0000000
                       0.0000000  0.0000000  0.0000000     0.0000000  0.0000000  0.0000000
                       0.0000000  0.0000000  0.0000000     0.0000000  0.0000000  0.0000000
                       0.0000000  0.0000000  0.0000000     0.0000000  0.0000000  0.0000000
            tnons62    0.0000000  0.0000000  0.0000000     0.0000000  0.0000000  0.0000000
                       0.0000000  0.0000000  0.0000000     0.0000000  0.0000000  0.0000000
                       0.0000000  0.0000000  0.0000000     0.0000000  0.0000000  0.0000000
                       0.0000000  0.0000000  0.0000000     0.0000000  0.0000000  0.0000000
                       0.0000000  0.0000000  0.0000000     0.0000000  0.0000000  0.0000000
                       0.0000000  0.0000000  0.0000000     0.0000000  0.0000000  0.0000000
                       0.0000000  0.0000000  0.0000000     0.0000000  0.0000000  0.0000000
                       0.0000000  0.0000000  0.0000000     0.0000000  0.0000000  0.0000000
                       0.0000000  0.0000000  0.0000000     0.0000000  0.0000000  0.0000000
                       0.0000000  0.0000000  0.0000000     0.0000000  0.0000000  0.0000000
                       0.0000000  0.0000000  0.0000000     0.0000000  0.0000000  0.0000000
                       0.0000000  0.0000000  0.0000000     0.0000000  0.0000000  0.0000000
                       0.0000000  0.0000000  0.0000000     0.0000000  0.0000000  0.0000000
                       0.0000000  0.0000000  0.0000000     0.0000000  0.0000000  0.0000000
                       0.0000000  0.0000000  0.0000000     0.0000000  0.0000000  0.0000000
                       0.0000000  0.0000000  0.0000000     0.0000000  0.0000000  0.0000000
                       0.0000000  0.0000000  0.0000000     0.0000000  0.0000000  0.0000000
                       0.0000000  0.0000000  0.0000000     0.0000000  0.0000000  0.0000000
                       0.0000000  0.0000000  0.0000000     0.0000000  0.0000000  0.0000000
                       0.0000000  0.0000000  0.0000000     0.0000000  0.0000000  0.0000000
                       0.0000000  0.0000000  0.0000000     0.0000000  0.0000000  0.0000000
                       0.0000000  0.0000000  0.0000000     0.0000000  0.0000000  0.0000000
                       0.0000000  0.0000000  0.0000000     0.0000000  0.0000000  0.0000000
                       0.0000000  0.0000000  0.0000000     0.0000000  0.0000000  0.0000000
           toldfe11    0.00000000E+00 Hartree
           toldfe12    1.00000000E-06 Hartree
           toldfe21    0.00000000E+00 Hartree
           toldfe22    1.00000000E-06 Hartree
           toldfe31    0.00000000E+00 Hartree
           toldfe32    1.00000000E-06 Hartree
           toldfe41    0.00000000E+00 Hartree
           toldfe42    1.00000000E-06 Hartree
           toldfe51    0.00000000E+00 Hartree
           toldfe52    1.00000000E-06 Hartree
           toldfe61    0.00000000E+00 Hartree
           toldfe62    1.00000000E-06 Hartree
           toldff11    5.00000000E-05
           toldff12    0.00000000E+00
           toldff21    5.00000000E-05
           toldff22    0.00000000E+00
           toldff31    5.00000000E-05
           toldff32    0.00000000E+00
           toldff41    5.00000000E-05
           toldff42    0.00000000E+00
           toldff51    5.00000000E-05
           toldff52    0.00000000E+00
           toldff61    5.00000000E-05
           toldff62    0.00000000E+00
           tolmxf11    5.00000000E-04
           tolmxf12    5.00000000E-05
           tolmxf21    5.00000000E-04
           tolmxf22    5.00000000E-05
           tolmxf31    5.00000000E-04
           tolmxf32    5.00000000E-05
           tolmxf41    5.00000000E-04
           tolmxf42    5.00000000E-05
           tolmxf51    5.00000000E-04
           tolmxf52    5.00000000E-05
           tolmxf61    5.00000000E-04
           tolmxf62    5.00000000E-05
            typat11    1  1
            typat12    1
            typat21    1  1
            typat22    1
            typat31    1  1
            typat32    1
            typat41    1  1
            typat42    1
            typat51    1  1
            typat52    1
            typat61    1  1
            typat62    1
           xangst11   -4.0230316853E-01  0.0000000000E+00  0.0000000000E+00
                       4.0230316853E-01  0.0000000000E+00  0.0000000000E+00
           xangst12    0.0000000000E+00  0.0000000000E+00  0.0000000000E+00
           xangst21   -3.9733635614E-01  0.0000000000E+00  0.0000000000E+00
                       3.9733635614E-01  0.0000000000E+00  0.0000000000E+00
           xangst22    0.0000000000E+00  0.0000000000E+00  0.0000000000E+00
           xangst31   -3.9143621625E-01  0.0000000000E+00  0.0000000000E+00
                       3.9143621625E-01  0.0000000000E+00  0.0000000000E+00
           xangst32    0.0000000000E+00  0.0000000000E+00  0.0000000000E+00
           xangst41   -3.8788448512E-01  0.0000000000E+00  0.0000000000E+00
                       3.8788448512E-01  0.0000000000E+00  0.0000000000E+00
           xangst42    0.0000000000E+00  0.0000000000E+00  0.0000000000E+00
           xangst51   -3.8628338590E-01  0.0000000000E+00  0.0000000000E+00
                       3.8628338590E-01  0.0000000000E+00  0.0000000000E+00
           xangst52    0.0000000000E+00  0.0000000000E+00  0.0000000000E+00
           xangst61   -3.8603882648E-01  0.0000000000E+00  0.0000000000E+00
                       3.8603882648E-01  0.0000000000E+00  0.0000000000E+00
           xangst62    0.0000000000E+00  0.0000000000E+00  0.0000000000E+00
            xcart11   -7.6024281092E-01  0.0000000000E+00  0.0000000000E+00
                       7.6024281092E-01  0.0000000000E+00  0.0000000000E+00
            xcart12    0.0000000000E+00  0.0000000000E+00  0.0000000000E+00
            xcart21   -7.5085689575E-01  0.0000000000E+00  0.0000000000E+00
                       7.5085689575E-01  0.0000000000E+00  0.0000000000E+00
            xcart22    0.0000000000E+00  0.0000000000E+00  0.0000000000E+00
            xcart31   -7.3970724721E-01  0.0000000000E+00  0.0000000000E+00
                       7.3970724721E-01  0.0000000000E+00  0.0000000000E+00
            xcart32    0.0000000000E+00  0.0000000000E+00  0.0000000000E+00
            xcart41   -7.3299544807E-01  0.0000000000E+00  0.0000000000E+00
                       7.3299544807E-01  0.0000000000E+00  0.0000000000E+00
            xcart42    0.0000000000E+00  0.0000000000E+00  0.0000000000E+00
            xcart51   -7.2996980904E-01  0.0000000000E+00  0.0000000000E+00
                       7.2996980904E-01  0.0000000000E+00  0.0000000000E+00
            xcart52    0.0000000000E+00  0.0000000000E+00  0.0000000000E+00
            xcart61   -7.2950765871E-01  0.0000000000E+00  0.0000000000E+00
                       7.2950765871E-01  0.0000000000E+00  0.0000000000E+00
            xcart62    0.0000000000E+00  0.0000000000E+00  0.0000000000E+00
             xred11   -7.6024281092E-02  0.0000000000E+00  0.0000000000E+00
                       7.6024281092E-02  0.0000000000E+00  0.0000000000E+00
             xred12    0.0000000000E+00  0.0000000000E+00  0.0000000000E+00
             xred21   -7.5085689575E-02  0.0000000000E+00  0.0000000000E+00
                       7.5085689575E-02  0.0000000000E+00  0.0000000000E+00
             xred22    0.0000000000E+00  0.0000000000E+00  0.0000000000E+00
             xred31   -7.3970724721E-02  0.0000000000E+00  0.0000000000E+00
                       7.3970724721E-02  0.0000000000E+00  0.0000000000E+00
             xred32    0.0000000000E+00  0.0000000000E+00  0.0000000000E+00
             xred41   -7.3299544807E-02  0.0000000000E+00  0.0000000000E+00
                       7.3299544807E-02  0.0000000000E+00  0.0000000000E+00
             xred42    0.0000000000E+00  0.0000000000E+00  0.0000000000E+00
             xred51   -7.2996980904E-02  0.0000000000E+00  0.0000000000E+00
                       7.2996980904E-02  0.0000000000E+00  0.0000000000E+00
             xred52    0.0000000000E+00  0.0000000000E+00  0.0000000000E+00
             xred61   -7.2950765871E-02  0.0000000000E+00  0.0000000000E+00
                       7.2950765871E-02  0.0000000000E+00  0.0000000000E+00
             xred62    0.0000000000E+00  0.0000000000E+00  0.0000000000E+00
            znucl        1.00000

================================================================================
  

================================================================================

 Suggested references for the acknowledgment of ABINIT usage.

 The users of ABINIT have little formal obligations with respect to the ABINIT group
 (those specified in the GNU General Public License, http://www.gnu.org/copyleft/gpl.txt).
 However, it is common practice in the scientific literature,
 to acknowledge the efforts of people that have made the research possible.
 In this spirit, please find below suggested citations of work written by ABINIT developers,
 corresponding to implementations inside of ABINIT that you have used in the present run.
 Note also that it will be of great value to readers of publications presenting these results,
 to read papers enabling them to understand the theoretical formalism and details
 of the ABINIT implementation.
 For information on why they are suggested, see also https://docs.abinit.org/theory/acknowledgments.
-
- [1] Recent developments in the ABINIT software package.
- Computer Phys. Comm. 205, 106 (2016).
- X.Gonze, F.Jollet, F.Abreu Araujo, D.Adams, B.Amadon, T.Applencourt,
- C.Audouze, J.-M.Beuken, J.Bieder, A.Bokhanchuk, E.Bousquet, F.Bruneval
- D.Caliste, M.Cote, F.Dahm, F.Da Pieve, M.Delaveau, M.Di Gennaro,
- B.Dorado, C.Espejo, G.Geneste, L.Genovese, A.Gerossier, M.Giantomassi,
- Y.Gillet, D.R.Hamann, L.He, G.Jomard, J.Laflamme Janssen, S.Le Roux,
- A.Levitt, A.Lherbier, F.Liu, I.Lukacevic, A.Martin, C.Martins,
- M.J.T.Oliveira, S.Ponce, Y.Pouillon, T.Rangel, G.-M.Rignanese,
- A.H.Romero, B.Rousseau, O.Rubel, A.A.Shukri, M.Stankovski, M.Torrent,
- M.J.Van Setten, B.Van Troeye, M.J.Verstraete, D.Waroquier, J.Wiktor,
- B.Xu, A.Zhou, J.W.Zwanziger.
- Comment : the fourth generic paper describing the ABINIT project.
- Note that a version of this paper, that is not formatted for Computer Phys. Comm. 
- is available at https://www.abinit.org/about/ABINIT16.pdf .
- The licence allows the authors to put it on the Web.
- DOI and bibtex : see https://docs.abinit.org/theory/bibliography/#gonze2016
-
- [2] ABINIT : First-principles approach of materials and nanosystem properties.
- Computer Phys. Comm. 180, 2582-2615 (2009).
- X. Gonze, B. Amadon, P.-M. Anglade, J.-M. Beuken, F. Bottin, P. Boulanger, F. Bruneval,
- D. Caliste, R. Caracas, M. Cote, T. Deutsch, L. Genovese, Ph. Ghosez, M. Giantomassi
- S. Goedecker, D.R. Hamann, P. Hermet, F. Jollet, G. Jomard, S. Leroux, M. Mancini, S. Mazevet,
- M.J.T. Oliveira, G. Onida, Y. Pouillon, T. Rangel, G.-M. Rignanese, D. Sangalli, R. Shaltaf,
- M. Torrent, M.J. Verstraete, G. Zerah, J.W. Zwanziger
- Comment : the third generic paper describing the ABINIT project.
- Note that a version of this paper, that is not formatted for Computer Phys. Comm. 
- is available at https://www.abinit.org/about/ABINIT_CPC_v10.pdf .
- The licence allows the authors to put it on the Web.
- DOI and bibtex : see https://docs.abinit.org/theory/bibliography/#gonze2009
-
- [3] A brief introduction to the ABINIT software package.
- Z. Kristallogr. 220, 558-562 (2005).
- X. Gonze, G.-M. Rignanese, M. Verstraete, J.-M. Beuken, Y. Pouillon, R. Caracas, F. Jollet,
- M. Torrent, G. Zerah, M. Mikami, Ph. Ghosez, M. Veithen, J.-Y. Raty, V. Olevano, F. Bruneval,
- L. Reining, R. Godby, G. Onida, D.R. Hamann, and D.C. Allan.
- Comment : the second generic paper describing the ABINIT project. Note that this paper
- should be cited especially if you are using the GW part of ABINIT, as several authors
- of this part are not in the list of authors of the first or third paper.
- The .pdf of the latter paper is available at https://www.abinit.org/about/zfk_0505-06_558-562.pdf.
- Note that it should not redistributed (Copyright by Oldenburg Wissenshaftverlag,
- the licence allows the authors to put it on the Web).
- DOI and bibtex : see https://docs.abinit.org/theory/bibliography/#gonze2005
-
- And optionally:
-
- [4] First-principles computation of material properties : the ABINIT software project. 
- X. Gonze, J.-M. Beuken, R. Caracas, F. Detraux, M. Fuchs, G.-M. Rignanese, L. Sindic,
- M. Verstraete, G. Zerah, F. Jollet, M. Torrent, A. Roy, M. Mikami, Ph. Ghosez, J.-Y. Raty, D.C. Allan.
- Computational Materials Science 25, 478-492 (2002). http://dx.doi.org/10.1016/S0927-0256(02)00325-7
- Comment : the original paper describing the ABINIT project.
- DOI and bibtex : see https://docs.abinit.org/theory/bibliography/#gonze2002
  Asked to delete not existent file: tbase2_2_STATUS
 Proc.   0 individual time (sec): cpu=        440.2  wall=        130.2

 Calculation completed.
.Delivered   0 WARNINGs and   6 COMMENTs to log file.

--- !FinalSummary
program: abinit
version: 8.10.3
start_datetime: Thu Oct 17 13:42:05 2019
end_datetime: Thu Oct 17 13:44:15 2019
overall_cpu_time:         997.9
overall_wall_time:         520.9
exit_requested_by_user: no 
timelimit: 0
pseudos: 
    H   : 941c50226b9f11130e30f8bcf04cfe5b
usepaw: 0
mpi_procs: 4
omp_threads: 8
num_warnings: 0
num_comments: 6
...
