  ABINIT 8.11.13
  
  Give name for formatted input file: 
opt.in
  Give name for formatted output file:
opt.out
  Give root name for generic input files:
opti
  Give root name for generic output files:
opto
  Give root name for generic temporary files:
opt
 
--- !COMMENT
src_file: m_dtfil.F90
src_line: 1450
message: |
    Output file: opt.out already exists.
...
 
 
--- !COMMENT
src_file: m_dtfil.F90
src_line: 1474
message: |
    Renaming old opt.out to opt.out0003
...
 

.Version 8.11.13 of ABINIT 
.(MPI version, prepared for a x86_64_linux_intel14.0 computer) 

.Copyright (C) 1998-2019 ABINIT group . 
 ABINIT comes with ABSOLUTELY NO WARRANTY.
 It is free software, and you are welcome to redistribute it
 under certain conditions (GNU General Public License,
 see ~abinit/COPYING or http://www.gnu.org/copyleft/gpl.txt).

 ABINIT is a project of the Universite Catholique de Louvain,
 Corning Inc. and other collaborators, see ~abinit/doc/developers/contributors.txt .
 Please read https://docs.abinit.org/theory/acknowledgments for suggested
 acknowledgments of the ABINIT effort.
 For more information, see https://www.abinit.org .

.Starting date : Fri  3 Jan 2020.
- ( at 16h42 )
  
 
 ++++++++++++++++++++++++++++++++++++++++++++++++++++++++++++++++++++++++++++++
 
 === Build Information === 
  Version       : 8.11.13
  Build target  : x86_64_linux_intel14.0
  Build date    : 20191206
 
 === Compiler Suite === 
  C compiler       : intel14.0
  C++ compiler     : gnu14.0
  Fortran compiler : intel14.0
  CFLAGS           :  -g -O2
  CXXFLAGS         :  -g -O2 -mtune=native -march=native
  FCFLAGS          :  -g -extend-source -nofpscomp
  FC_LDFLAGS       :    -static-intel -static-libgcc
 
 === Optimizations === 
  Debug level        : basic
  Optimization level : standard
  Architecture       : intel_xeon
 
 === Multicore === 
  Parallel build : yes
  Parallel I/O   : yes
  openMP support : no
  GPU support    : no
 
 === Connectors / Fallbacks === 
  Connectors on : yes
  Fallbacks on  : yes
  DFT flavor    : libxc-fallback
  FFT flavor    : fftw3
  LINALG flavor : mkl
  TIMER flavor  : abinit
  TRIO flavor   : netcdf
 
 === Experimental features === 
  Exports             : no
  GW double-precision : yes
 
 ++++++++++++++++++++++++++++++++++++++++++++++++++++++++++++++++++++++++++++++
 

 ++++++++++++++++++++++++++++++++++++++++++++++++++++++++++++++++++++++++++++++
 Default optimizations:
   -O3


 Optimizations for 43_ptgroups:
   -O0


 ++++++++++++++++++++++++++++++++++++++++++++++++++++++++++++++++++++++++++++++


 ++++++++++++++++++++++++++++++++++++++++++++++++++++++++++++++++++++++++++++++
 CPP options activated during the build:

                  CC_INTEL                   CXX_GNU                  FC_INTEL
 
 HAVE_FC_ALLOCATABLE_DT...             HAVE_FC_ASYNC  HAVE_FC_COMMAND_ARGUMENT
 
        HAVE_FC_CONTIGUOUS           HAVE_FC_CPUTIME             HAVE_FC_ETIME
 
              HAVE_FC_EXIT             HAVE_FC_FLUSH             HAVE_FC_GAMMA
 
            HAVE_FC_GETENV            HAVE_FC_GETPID   HAVE_FC_IEEE_ARITHMETIC
 
   HAVE_FC_IEEE_EXCEPTIONS             HAVE_FC_IOMSG     HAVE_FC_ISO_C_BINDING
 
  HAVE_FC_ISO_FORTRAN_2008        HAVE_FC_LONG_LINES        HAVE_FC_MOVE_ALLOC
 
  HAVE_FC_ON_THE_FLY_SHAPE           HAVE_FC_PRIVATE         HAVE_FC_PROTECTED
 
           HAVE_FC_SHIFTLR         HAVE_FC_STREAM_IO            HAVE_FC_SYSTEM
 
                  HAVE_FFT            HAVE_FFT_FFTW3              HAVE_FFT_MPI
 
           HAVE_FFT_SERIAL               HAVE_GW_DPC        HAVE_LIBPAW_ABINIT
 
      HAVE_LIBTETRA_ABINIT                HAVE_LIBXC               HAVE_LINALG
 
         HAVE_LINALG_AXPBY        HAVE_LINALG_GEMM3M  HAVE_LINALG_MKL_IMATCOPY
 
   HAVE_LINALG_MKL_OMATADD  HAVE_LINALG_MKL_OMATCOPY   HAVE_LINALG_MKL_THREADS
 
        HAVE_LINALG_SERIAL                  HAVE_MPI                 HAVE_MPI2
 
       HAVE_MPI_IALLREDUCE        HAVE_MPI_IALLTOALL       HAVE_MPI_IALLTOALLV
 
           HAVE_MPI_IBCAST         HAVE_MPI_IGATHERV        HAVE_MPI_INTEGER16
 
               HAVE_MPI_IO HAVE_MPI_TYPE_CREATE_S...               HAVE_NETCDF
 
           HAVE_NETCDF_MPI                HAVE_NUMPY             HAVE_OS_LINUX
 
         HAVE_TIMER_ABINIT                  HAVE_XML              USE_MACROAVE
 
 ++++++++++++++++++++++++++++++++++++++++++++++++++++++++++++++++++++++++++++++

- input  file    -> opt.in
- output file    -> opt.out
- root for input  files -> opti
- root for output files -> opto
 
Netcdf library supports MPI-IO
-instrng: 54 lines of input have been read from file opt.in
 

 Please give name of formatted atomic psp file
 For atom type 1, psp file is /CECI/home/ucl/naps/jovbever/.PsP/Si/Si.psp8
  read the values zionpsp=  4.0 , pspcod=   8 , lmax=   2
 
 inpspheads: deduce mpsang = 3, n1xccc = 2501.

======================================================= 
invars1m : enter jdtset= 0
 
 symlatt: the Bravais lattice is cF (face-centered cubic)
  xred   is defined in input file
 ingeo: takes atomic coordinates from input array xred
 
 symlatt: the Bravais lattice is cF (face-centered cubic)
 
 symlatt: the Bravais lattice is cF (face-centered cubic)
 symspgr: spgroup= 227  Fd -3 m   (=Oh^7)
 symspgr: optical characteristics = isotropic
 For input ecut=  5.000000E+02 best grid ngfft=      80      80      80
       max ecut=  5.278583E+02
 
 ==== FFT mesh ====
  FFT mesh divisions ........................    80   80   80
  Augmented FFT divisions ...................    81   81   80
  FFT algorithm .............................   312
  FFT cache size ............................    16
 getmpw: optimal value of mpw= 21911
 
 Symmetries : space group Fd -3 m (#227); Bravais cF (face-center cubic)
 
 getdim_nloc : deduce lmnmax  =  18, lnmax  =   6,
                      lmnmaxso=  18, lnmaxso=   6.
memory: analysis of memory needs
================================================================================
 Values of the parameters that define the memory need of the present run
     intxc =       0    ionmov =       2      iscf =       7    lmnmax =       6
     lnmax =       6     mgfft =      80  mpssoang =       3    mqgrid =    3179
     natom =       2  nloc_mem =       1    nspden =       1   nspinor =       1
    nsppol =       1      nsym =      48    n1xccc =    2501    ntypat =       1
    occopt =       1   xclevel =       2
-    mband =           4        mffmem =           1         mkmem =          10
       mpw =       21911          nfft =      512000          nkpt =          10
================================================================================
P This job should need less than                     180.897 Mbytes of memory.
  Rough estimation (10% accuracy) of disk space for files :
_ WF disk file :     13.375 Mbytes ; DEN or POT disk file :      3.908 Mbytes.
================================================================================
 
 Biggest array : f_fftgr(disk), with     62.5020 MBytes.
 memana : allocated an array of     62.502 Mbytes, for testing purposes.
 memana: allocated     180.897Mbytes, for testing purposes. 
 The job will continue.
--------------------------------------------------------------------------------
------------- Echo of variables that govern the present computation ------------
--------------------------------------------------------------------------------
-
- outvars: echo of selected default values                                      
-   iomode0 =  0 , fftalg0 =312 , wfoptalg0 =  0
-
- outvars: echo of global parameters not present in the input file              
-  max_nthreads =    0
-
 -outvars: echo values of preprocessed input variables --------
 
 These variables are accessible in NetCDF format (opto_OUT.nc)

            acell      5.4695448600E+00  5.4695448600E+00  5.4695448600E+00 Bohr
              amu      2.80855000E+01
       chkdilatmx           0
          dilatmx      5.00000000E+00
             ecut      2.00000000E+01 Hartree
           ecutsm      5.00000000E-01 Hartree
-          fftalg         312
           ionmov           2
              ixc          11
              kpt     -1.25000000E-01 -2.50000000E-01  0.00000000E+00
                      -1.25000000E-01  5.00000000E-01  0.00000000E+00
                      -2.50000000E-01 -3.75000000E-01  0.00000000E+00
                      -1.25000000E-01 -3.75000000E-01  1.25000000E-01
                      -1.25000000E-01  2.50000000E-01  0.00000000E+00
                      -2.50000000E-01  3.75000000E-01  0.00000000E+00
                      -3.75000000E-01  5.00000000E-01  0.00000000E+00
                      -2.50000000E-01  5.00000000E-01  1.25000000E-01
                      -1.25000000E-01  0.00000000E+00  0.00000000E+00
                      -3.75000000E-01  0.00000000E+00  0.00000000E+00
         kptrlatt        4   -4    4     -4    4    4     -4   -4    4
          kptrlen      2.18781794E+01
P           mkmem          10
            natom           2
            nband           4
            ngfft          80      80      80
             nkpt          10
             nsym          48
            ntime          15
           ntypat           1
              occ      2.000000  2.000000  2.000000  2.000000
          optcell           2
            rprim      5.0000000000E-01  5.0000000000E-01  0.0000000000E+00
                       0.0000000000E+00  5.0000000000E-01  5.0000000000E-01
                       5.0000000000E-01  0.0000000000E+00  5.0000000000E-01
           shiftk      5.00000000E-01  5.00000000E-01  5.00000000E-01
          spgroup         227
           symrel      1  0  0   0  1  0   0  0  1      -1  0  0   0 -1  0   0  0 -1
                       0 -1  1   0 -1  0   1 -1  0       0  1 -1   0  1  0  -1  1  0
                      -1  0  0  -1  0  1  -1  1  0       1  0  0   1  0 -1   1 -1  0
                       0  1 -1   1  0 -1   0  0 -1       0 -1  1  -1  0  1   0  0  1
                      -1  0  0  -1  1  0  -1  0  1       1  0  0   1 -1  0   1  0 -1
                       0 -1  1   1 -1  0   0 -1  0       0  1 -1  -1  1  0   0  1  0
                       1  0  0   0  0  1   0  1  0      -1  0  0   0  0 -1   0 -1  0
                       0  1 -1   0  0 -1   1  0 -1       0 -1  1   0  0  1  -1  0  1
                      -1  0  1  -1  1  0  -1  0  0       1  0 -1   1 -1  0   1  0  0
                       0 -1  0   1 -1  0   0 -1  1       0  1  0  -1  1  0   0  1 -1
                       1  0 -1   0  0 -1   0  1 -1      -1  0  1   0  0  1   0 -1  1
                       0  1  0   0  0  1   1  0  0       0 -1  0   0  0 -1  -1  0  0
                       1  0 -1   0  1 -1   0  0 -1      -1  0  1   0 -1  1   0  0  1
                       0 -1  0   0 -1  1   1 -1  0       0  1  0   0  1 -1  -1  1  0
                      -1  0  1  -1  0  0  -1  1  0       1  0 -1   1  0  0   1 -1  0
                       0  1  0   1  0  0   0  0  1       0 -1  0  -1  0  0   0  0 -1
                       0  0 -1   0  1 -1   1  0 -1       0  0  1   0 -1  1  -1  0  1
                       1 -1  0   0 -1  1   0 -1  0      -1  1  0   0  1 -1   0  1  0
                       0  0  1   1  0  0   0  1  0       0  0 -1  -1  0  0   0 -1  0
                      -1  1  0  -1  0  0  -1  0  1       1 -1  0   1  0  0   1  0 -1
                       0  0  1   0  1  0   1  0  0       0  0 -1   0 -1  0  -1  0  0
                       1 -1  0   0 -1  0   0 -1  1      -1  1  0   0  1  0   0  1 -1
                       0  0 -1   1  0 -1   0  1 -1       0  0  1  -1  0  1   0 -1  1
                      -1  1  0  -1  0  1  -1  0  0       1 -1  0   1  0 -1   1  0  0
            tnons      0.0000000  0.0000000  0.0000000     0.2500000  0.2500000  0.2500000
                       0.0000000  0.0000000  0.0000000     0.2500000  0.2500000  0.2500000
                       0.0000000  0.0000000  0.0000000     0.2500000  0.2500000  0.2500000
                       0.0000000  0.0000000  0.0000000     0.2500000  0.2500000  0.2500000
                       0.0000000  0.0000000  0.0000000     0.2500000  0.2500000  0.2500000
                       0.0000000  0.0000000  0.0000000     0.2500000  0.2500000  0.2500000
                       0.0000000  0.0000000  0.0000000     0.2500000  0.2500000  0.2500000
                       0.0000000  0.0000000  0.0000000     0.2500000  0.2500000  0.2500000
                       0.0000000  0.0000000  0.0000000     0.2500000  0.2500000  0.2500000
                       0.0000000  0.0000000  0.0000000     0.2500000  0.2500000  0.2500000
                       0.0000000  0.0000000  0.0000000     0.2500000  0.2500000  0.2500000
                       0.0000000  0.0000000  0.0000000     0.2500000  0.2500000  0.2500000
                       0.0000000  0.0000000  0.0000000     0.2500000  0.2500000  0.2500000
                       0.0000000  0.0000000  0.0000000     0.2500000  0.2500000  0.2500000
                       0.0000000  0.0000000  0.0000000     0.2500000  0.2500000  0.2500000
                       0.0000000  0.0000000  0.0000000     0.2500000  0.2500000  0.2500000
                       0.0000000  0.0000000  0.0000000     0.2500000  0.2500000  0.2500000
                       0.0000000  0.0000000  0.0000000     0.2500000  0.2500000  0.2500000
                       0.0000000  0.0000000  0.0000000     0.2500000  0.2500000  0.2500000
                       0.0000000  0.0000000  0.0000000     0.2500000  0.2500000  0.2500000
                       0.0000000  0.0000000  0.0000000     0.2500000  0.2500000  0.2500000
                       0.0000000  0.0000000  0.0000000     0.2500000  0.2500000  0.2500000
                       0.0000000  0.0000000  0.0000000     0.2500000  0.2500000  0.2500000
                       0.0000000  0.0000000  0.0000000     0.2500000  0.2500000  0.2500000
           tolvrs      1.00000000E-08
            typat      1  1
              wtk        0.09375    0.09375    0.09375    0.18750    0.09375    0.09375
                         0.09375    0.18750    0.03125    0.03125
           xangst      0.0000000000E+00  0.0000000000E+00  0.0000000000E+00
                       7.2358962032E-01  7.2358962032E-01  7.2358962032E-01
            xcart      0.0000000000E+00  0.0000000000E+00  0.0000000000E+00
                       1.3673862150E+00  1.3673862150E+00  1.3673862150E+00
             xred      0.0000000000E+00  0.0000000000E+00  0.0000000000E+00
                       2.5000000000E-01  2.5000000000E-01  2.5000000000E-01
            znucl       14.00000
 
================================================================================
 
 chkinp: Checking input parameters for consistency.
 DATA TYPE INFORMATION: 
 REAL:      Data type name: REAL(DP) 
            Kind value:      8
            Precision:      15
            Smallest nonnegligible quantity relative to 1:  0.22204460E-15
            Smallest positive number:                       0.22250739-307
            Largest representable number:                   0.17976931+309
 INTEGER:   Data type name: INTEGER(default) 
            Kind value: 4
            Bit size:   32
            Largest representable number: 2147483647
 LOGICAL:   Data type name: LOGICAL 
            Kind value: 4
 CHARACTER: Data type name: CHARACTER             Kind value: 1

  ==== OpenMP parallelism is OFF ====
 
  ==== Using MPI-2 specifications ==== 
  MPI-IO support is ON
  xmpi_tag_ub ................   1073741824
  xmpi_bsize_ch ..............            1
  xmpi_bsize_int .............            4
  xmpi_bsize_sp ..............            4
  xmpi_bsize_dp ..............            8
  xmpi_bsize_spc .............            8
  xmpi_bsize_dpc .............           16
  xmpio_bsize_frm ............            4
  xmpi_address_kind ..........            8
  xmpi_offset_kind ...........            8
  MPI_WTICK ..................   1.000000000000000E-006
 
================================================================================
== DATASET  1 ==================================================================
-   nproc =    1
 
 
--- !COMMENT
src_file: m_xgScalapack.F90
src_line: 237
message: |
    xgScalapack in auto mode
...
 
 
 getdim_nloc : deduce lmnmax  =  18, lnmax  =   6,
                      lmnmaxso=  18, lnmaxso=   6.
 Exchange-correlation functional for the present dataset will be:
  GGA: Perdew-Burke-Ernzerhof functional - ixc=11
 Citation for XC functional:
  J.P.Perdew, K.Burke, M.Ernzerhof, PRL 77, 3865 (1996)
 
 Unit cell volume ucvol=  4.0906618E+01 bohr^3
 Angles (23,13,12)=  6.00000000E+01  6.00000000E+01  6.00000000E+01 degrees
 
 getcut: wavevector=  0.0000  0.0000  0.0000  ngfft=  80  80  80
         ecut(hartree)=    500.000   => boxcut(ratio)=   2.05496
- pspini: atom type   1  psp file is /CECI/home/ucl/naps/jovbever/.PsP/Si/Si.psp8
- pspatm: opening atomic psp file    /CECI/home/ucl/naps/jovbever/.PsP/Si/Si.psp8
- Si    ONCVPSP-3.2.3.1  r_core=   1.60303   1.72197   1.91712
- 14.00000   4.00000    170510                znucl, zion, pspdat
    8   11    2    4       600   0.00000      pspcod,pspxc,lmax,lloc,mmax,r2well
    5.99000000000000    4.00000000000000    0.00000000000000   rchrg,fchrg,qchrg
     nproj     2     2     2
     extension_switch     1
  valence charge integrates to:    3.95328304696650     
  pspatm : epsatm=    9.34321699
         --- l  ekb(1:nproj) -->
             0    5.168965    0.829883
             1    2.571282    0.578307
             2   -2.427311   -0.488097
 pspatm: atomic psp has been read  and splines computed
 
   1.49491472E+02                                ecore*ucvol(ha*bohr**3)
 ==== Info on pseudopotentials ====
  Norm-conserving pseudopotentials
  Number of pseudopotentials ..    1
  Number of types of atoms   ..    1
  Scalar calculation (no spin-orbit term)
  Nonlocal part applied using Legendre polynomials
  Max number of non-local projectors over l and type   2
  Highest angular momentum +1 .......   3
  Max number of (l,n)   components ..   6
  Max number of (l,m,n) components ..   6
 
 Pseudo-Core Charge Info: 
   Number of radial points for pseudo-core charge .. 2501
   XC core-correction treatment (optnlxccc) ........    1
   Radius for pseudo-core charge for each type ..... 
 
  - Atom type    1 has pseudo-core radius ..  5.9900
 
 Info on the Q-grid used for form factors in spline form: 
   Number of q-points for radial functions ffspl ..   3179
   Number of q-points for vlspl ...................   3179
   vloc is computed in Reciprocal Space
   model core charge treated in real-space
 
  XC functional for type 1 is 11
  Pseudo valence available: yes
 
 wfconv:     4 bands initialized randomly with npw= 21874, for ikpt=     1
 wfconv:     4 bands initialized randomly with npw= 21842, for ikpt=     2
 wfconv:     4 bands initialized randomly with npw= 21857, for ikpt=     3
 wfconv:     4 bands initialized randomly with npw= 21839, for ikpt=     4
 wfconv:     4 bands initialized randomly with npw= 21846, for ikpt=     5
 wfconv:     4 bands initialized randomly with npw= 21831, for ikpt=     6
 wfconv:     4 bands initialized randomly with npw= 21823, for ikpt=     7
 wfconv:     4 bands initialized randomly with npw= 21841, for ikpt=     8
 wfconv:     4 bands initialized randomly with npw= 21911, for ikpt=     9
 wfconv:     4 bands initialized randomly with npw= 21839, for ikpt=    10
_setup2: Arith. and geom. avg. npw (full set) are   21845.281   21845.274
 initro: for itypat=  1, take pseudo charge density from pp file
 
================================================================================
 
=== [ionmov= 2] Broyden-Fletcher-Goldfard-Shanno method (forces)            
================================================================================
 
--- Iteration: ( 1/15) Internal Cycle: (1/1)
--------------------------------------------------------------------------------
 
 Cartesian coordinates (xcart) [bohr]
  0.00000000000000E+00  0.00000000000000E+00  0.00000000000000E+00
  1.36738621500000E+00  1.36738621500000E+00  1.36738621500000E+00
 Reduced coordinates (xred)
  0.00000000000000E+00  0.00000000000000E+00  0.00000000000000E+00
  2.50000000000000E-01  2.50000000000000E-01  2.50000000000000E-01
 Scale of Primitive Cell (acell) [bohr]
  5.46954486000000E+00  5.46954486000000E+00  5.46954486000000E+00
 Real space primitive translations (rprimd) [bohr]
  2.73477243000000E+00  2.73477243000000E+00  0.00000000000000E+00
  0.00000000000000E+00  2.73477243000000E+00  2.73477243000000E+00
  2.73477243000000E+00  0.00000000000000E+00  2.73477243000000E+00
 Unitary Cell Volume (ucvol) [Bohr^3]=  4.09066179509997E+01
 Angles (23,13,12)= [degrees]
  6.00000000000000E+01  6.00000000000000E+01  6.00000000000000E+01
 Lengths [Bohr]
  3.86755226051003E+00  3.86755226051003E+00  3.86755226051003E+00
 
---SELF-CONSISTENT-FIELD CONVERGENCE--------------------------------------------
 
 getcut: wavevector=  0.0000  0.0000  0.0000  ngfft=  80  80  80
         ecut(hartree)=     20.000   => boxcut(ratio)=  10.27481
 
 getcut : COMMENT -
  Note that boxcut > 2.2 ; recall that boxcut=Gcut(box)/Gcut(sphere) = 2
  is sufficient for exact treatment of convolution.
  Such a large boxcut is a waste : you could raise ecut
  e.g. ecut=  527.858295 Hartrees makes boxcut=2
 
 
 ITER STEP NUMBER     1
 vtorho: nnsclo_now=2, note that nnsclo,dbl_nnsclo,istep=0 0 1
 
--- !WARNING
src_file: m_vtorho.F90
src_line: 1699
message: |
    For k-point number 1,
    The minimal occupation factor is  2.000.
    An adequate monitoring of convergence requires it to be  at most 0.01_dp.
    Action: increase slightly the number of bands.
...
 
 Total charge density [el/Bohr^3]
      Maximum=    2.6072E-01  at reduced coord.    0.5000    0.5125    0.9875
      Minimum=    3.0645E-03  at reduced coord.    0.0000    0.0000    0.0000
   Integrated=    8.0000E+00
 ETOT  1  -4.2252672737569    -4.225E+00 1.641E-01 1.028E+03
 scprqt: <Vxc>= -6.7001240E-01 hartree
 
 Simple mixing update:
  residual square of the potential:    702.635425922883
 scfcv_core: previous iteration took 11.14 [s]
 
 ITER STEP NUMBER     2
 vtorho: nnsclo_now=2, note that nnsclo,dbl_nnsclo,istep=0 0 2
 
--- !WARNING
src_file: m_vtorho.F90
src_line: 1699
message: |
    For k-point number 1,
    The minimal occupation factor is  2.000.
    An adequate monitoring of convergence requires it to be  at most 0.01_dp.
    Action: increase slightly the number of bands.
...
 
 Total charge density [el/Bohr^3]
      Maximum=    2.6102E-01  at reduced coord.    0.5000    0.5125    0.9875
      Minimum=    3.4509E-03  at reduced coord.    0.0000    0.0000    0.0000
   Integrated=    8.0000E+00
 ETOT  2  -4.2499655280959    -2.470E-02 3.917E-02 2.626E-01
 scprqt: <Vxc>= -6.6984330E-01 hartree
 
 Pulay update with  1 previous iterations:
 mixing of old trial potential: alpha(m:m-4)=  0.998      0.188E-02
 scfcv_core: previous iteration took  9.99 [s]
 
 ITER STEP NUMBER     3
 vtorho: nnsclo_now=1, note that nnsclo,dbl_nnsclo,istep=0 0 3
 
--- !WARNING
src_file: m_vtorho.F90
src_line: 1699
message: |
    For k-point number 1,
    The minimal occupation factor is  2.000.
    An adequate monitoring of convergence requires it to be  at most 0.01_dp.
    Action: increase slightly the number of bands.
...
 
 Total charge density [el/Bohr^3]
      Maximum=    2.6097E-01  at reduced coord.    0.5000    0.5125    0.9875
      Minimum=    3.4414E-03  at reduced coord.    0.0000    0.0000    0.0000
   Integrated=    8.0000E+00
 ETOT  3  -4.2505063578785    -5.408E-04 1.295E-03 1.827E-03
 scprqt: <Vxc>= -6.6984787E-01 hartree
 
 Pulay update with  2 previous iterations:
 mixing of old trial potential: alpha(m:m-4)=   1.05     -0.507E-01 -0.122E-02
 scfcv_core: previous iteration took  5.61 [s]
 
 ITER STEP NUMBER     4
 vtorho: nnsclo_now=1, note that nnsclo,dbl_nnsclo,istep=0 0 4
 
--- !WARNING
src_file: m_vtorho.F90
src_line: 1699
message: |
    For k-point number 1,
    The minimal occupation factor is  2.000.
    An adequate monitoring of convergence requires it to be  at most 0.01_dp.
    Action: increase slightly the number of bands.
...
 
 Total charge density [el/Bohr^3]
      Maximum=    2.6097E-01  at reduced coord.    0.5000    0.5125    0.9875
      Minimum=    3.4420E-03  at reduced coord.    0.0000    0.0000    0.0000
   Integrated=    8.0000E+00
 ETOT  4  -4.2505414391827    -3.508E-05 1.421E-04 9.021E-06
 scprqt: <Vxc>= -6.6984797E-01 hartree
 
 Pulay update with  3 previous iterations:
 mixing of old trial potential: alpha(m:m-4)=   1.07     -0.730E-01  0.233E-02  0.177E-03
 scfcv_core: previous iteration took  5.92 [s]
 
 ITER STEP NUMBER     5
 vtorho: nnsclo_now=1, note that nnsclo,dbl_nnsclo,istep=0 0 5
 
--- !WARNING
src_file: m_vtorho.F90
src_line: 1699
message: |
    For k-point number 1,
    The minimal occupation factor is  2.000.
    An adequate monitoring of convergence requires it to be  at most 0.01_dp.
    Action: increase slightly the number of bands.
...
 
 Total charge density [el/Bohr^3]
      Maximum=    2.6097E-01  at reduced coord.    0.5000    0.5125    0.9875
      Minimum=    3.4419E-03  at reduced coord.    0.0000    0.0000    0.0000
   Integrated=    8.0000E+00
 ETOT  5  -4.2505444989229    -3.060E-06 9.754E-06 3.757E-08
 scprqt: <Vxc>= -6.6984800E-01 hartree
 
 Pulay update with  4 previous iterations:
 mixing of old trial potential: alpha(m:m-4)=  0.923      0.803E-01 -0.364E-02  0.142E-03  0.617E-05
 scfcv_core: previous iteration took  5.95 [s]
 
 ITER STEP NUMBER     6
 vtorho: nnsclo_now=1, note that nnsclo,dbl_nnsclo,istep=0 0 6
 Total charge density [el/Bohr^3]
      Maximum=    2.6097E-01  at reduced coord.    0.5000    0.5125    0.9875
      Minimum=    3.4419E-03  at reduced coord.    0.0000    0.0000    0.0000
   Integrated=    8.0000E+00
 ETOT  6  -4.2505447745425    -2.756E-07 1.021E-06 2.033E-08
 scprqt: <Vxc>= -6.6984800E-01 hartree
 
 Pulay update with  5 previous iterations:
 mixing of old trial potential: alpha(m:m-4)=   1.23     -0.208     -0.197E-01  0.536E-03 -0.748E-04
 scfcv_core: previous iteration took  5.66 [s]
 
 ITER STEP NUMBER     7
 vtorho: nnsclo_now=1, note that nnsclo,dbl_nnsclo,istep=0 0 7
 Total charge density [el/Bohr^3]
      Maximum=    2.6097E-01  at reduced coord.    0.5000    0.5125    0.9875
      Minimum=    3.4419E-03  at reduced coord.    0.0000    0.0000    0.0000
   Integrated=    8.0000E+00
 ETOT  7  -4.2505447996342    -2.509E-08 8.179E-08 2.065E-10
 scprqt: <Vxc>= -6.6984800E-01 hartree
 
 At SCF step    7       vres2   =  2.07E-10 < tolvrs=  1.00E-08 =>converged.
 
 Cartesian components of stress tensor (hartree/bohr^3)
  sigma(1 1)= -1.45317321E-01  sigma(3 2)=  0.00000000E+00
  sigma(2 2)= -1.45317321E-01  sigma(3 1)=  0.00000000E+00
  sigma(3 3)= -1.45317321E-01  sigma(2 1)=  0.00000000E+00
 
 
   fftdatar_write: About to write data to: opto_TIM1_DEN with iomode: IO_MODE_FORTRAN
 IO operation completed. cpu:  0.00 [s] , wall:  0.01 [s]
- Creating HDf5 file with MPI-IO support: opto_GSR.nc
 Write iteration in HIST netCDF file
 
---OUTPUT-----------------------------------------------------------------------
 
 Cartesian coordinates (xcart) [bohr]
  0.00000000000000E+00  0.00000000000000E+00  0.00000000000000E+00
  1.36738621500000E+00  1.36738621500000E+00  1.36738621500000E+00
 Reduced coordinates (xred)
  0.00000000000000E+00  0.00000000000000E+00  0.00000000000000E+00
  2.50000000000000E-01  2.50000000000000E-01  2.50000000000000E-01
 Cartesian forces (fcart) [Ha/bohr]; max,rms= 2.40380E-31 2.40380E-31 (free atoms)
  2.40379813864138E-31  2.40379813864138E-31 -2.40379813864138E-31
 -2.40379813864138E-31 -2.40379813864138E-31  2.40379813864138E-31
 Reduced forces (fred)
 -1.31476817536835E-30  0.00000000000000E+00  0.00000000000000E+00
  1.31476817536835E-30  0.00000000000000E+00  0.00000000000000E+00
 Scale of Primitive Cell (acell) [bohr]
  5.46954486000000E+00  5.46954486000000E+00  5.46954486000000E+00
 Real space primitive translations (rprimd) [bohr]
  2.73477243000000E+00  2.73477243000000E+00  0.00000000000000E+00
  0.00000000000000E+00  2.73477243000000E+00  2.73477243000000E+00
  2.73477243000000E+00  0.00000000000000E+00  2.73477243000000E+00
 Unitary Cell Volume (ucvol) [Bohr^3]=  4.09066179509997E+01
 Angles (23,13,12)= [degrees]
  6.00000000000000E+01  6.00000000000000E+01  6.00000000000000E+01
 Lengths [Bohr]
  3.86755226051003E+00  3.86755226051003E+00  3.86755226051003E+00
 Stress tensor in cartesian coordinates (strten) [Ha/bohr^3]
 -1.45317320862447E-01  0.00000000000000E+00  0.00000000000000E+00
  0.00000000000000E+00 -1.45317320862447E-01  0.00000000000000E+00
  0.00000000000000E+00  0.00000000000000E+00 -1.45317320862447E-01
 Total energy (etotal) [Ha]= -4.25054479963416E+00
 fconv : at Broyd/MD step   1, gradients have not converged yet. 
  max grad (force/stress) = 1.4532E+01 > tolmxf= 5.0000E-05 ha/bohr (free atoms)
 
Inverse hessian has been initialized.
 
--- !WARNING
src_file: m_geometry.F90
src_line: 1455
message: |
    The new primitive vectors rprimd (an evolving quantity)
    are too large, given the initial rprimd and the accompanying dilatmx:     5.000000E+00
    An adequate value would have been dilatmx_new=     5.359520E+00
    As chkdilatmx=0, assume experienced user. Execution will continue.
...
 
 EXIT:           1           1
 mover: previous time step took 53.58 [s]
 
--- Iteration: ( 2/15) Internal Cycle: (1/1)
--------------------------------------------------------------------------------
 
 Cartesian coordinates (xcart) [bohr]
  1.28832033006864E-30  1.28832033006864E-30 -1.28832033006864E-30
  7.32853325544124E+00  7.32853325544124E+00  7.32853325544124E+00
 Reduced coordinates (xred)
  1.31846334576441E-31 -4.39487781921471E-32 -4.39487781921471E-32
  2.50000000000000E-01  2.50000000000000E-01  2.50000000000000E-01
 Scale of Primitive Cell (acell) [bohr]
  2.07282222442945E+01  2.07282222442945E+01  2.07282222442945E+01
 Real space primitive translations (rprimd) [bohr]
  1.46570665108825E+01  1.46570665108825E+01  1.31779831549324E-19
  1.31779831549305E-19  1.46570665108825E+01  1.46570665108825E+01
  1.46570665108825E+01  2.63559663098618E-19  1.46570665108825E+01
 Unitary Cell Volume (ucvol) [Bohr^3]=  6.29754343343412E+03
 Angles (23,13,12)= [degrees]
  6.00000000000000E+01  6.00000000000000E+01  6.00000000000000E+01
 Lengths [Bohr]
  2.07282222442945E+01  2.07282222442945E+01  2.07282222442945E+01
 
---SELF-CONSISTENT-FIELD CONVERGENCE--------------------------------------------
 
 getcut: wavevector=  0.0000  0.0000  0.0000  ngfft=  80  80  80
         ecut(hartree)=     20.000   => boxcut(ratio)=   1.91711
 
 ITER STEP NUMBER     1
 vtorho: nnsclo_now=2, note that nnsclo,dbl_nnsclo,istep=0 0 1
 Total charge density [el/Bohr^3]
      Maximum=    6.3649E-02  at reduced coord.    0.0250    0.0250    0.9375
      Minimum=    6.2502E-06  at reduced coord.    0.4375    0.4375    0.4250
   Integrated=    8.0000E+00
 ETOT  1  -7.0049242922004    -7.005E+00 5.285E+00 4.266E+06
 scprqt: <Vxc>= -6.1969854E-02 hartree
 
 Simple mixing update:
  residual square of the potential:    176417.386098566
 scfcv_core: previous iteration took 10.66 [s]
 
 ITER STEP NUMBER     2
 vtorho: nnsclo_now=2, note that nnsclo,dbl_nnsclo,istep=0 0 2
 Total charge density [el/Bohr^3]
      Maximum=    1.4487E-01  at reduced coord.    0.0250    0.0375    0.9375
      Minimum=    1.7792E-07  at reduced coord.    0.5000    0.4875    0.3125
   Integrated=    8.0000E+00
 ETOT  2  -5.5276865018988     1.477E+00 2.107E-01 2.912E+06
 scprqt: <Vxc>= -2.9253378E-02 hartree
 
 Pulay update with  1 previous iterations:
 mixing of old trial potential: alpha(m:m-4)=   3.42      -2.42
 scfcv_core: previous iteration took 10.23 [s]
 
 ITER STEP NUMBER     3
 vtorho: nnsclo_now=1, note that nnsclo,dbl_nnsclo,istep=0 0 3
 Total charge density [el/Bohr^3]
      Maximum=    5.6300E-02  at reduced coord.    0.0250    0.0375    0.9125
      Minimum=    1.1885E-07  at reduced coord.    0.7625    0.4125    0.0500
   Integrated=    8.0000E+00
 ETOT  3  -7.9319621063760    -2.404E+00 2.959E-02 5.889E+05
 scprqt: <Vxc>= -4.7619324E-02 hartree
 
 Pulay update with  2 previous iterations:
 mixing of old trial potential: alpha(m:m-4)=  0.803      0.900     -0.703
 scfcv_core: previous iteration took  5.55 [s]
 
 ITER STEP NUMBER     4
 vtorho: nnsclo_now=1, note that nnsclo,dbl_nnsclo,istep=0 0 4
 Total charge density [el/Bohr^3]
      Maximum=    5.2460E-02  at reduced coord.    0.0250    0.0375    0.9125
      Minimum=    1.4905E-08  at reduced coord.    0.4875    0.4750    0.2625
   Integrated=    8.0000E+00
 ETOT  4  -8.0023456374531    -7.038E-02 9.423E-04 3.999E+05
 scprqt: <Vxc>= -4.9438430E-02 hartree
 
 Pulay update with  3 previous iterations:
 mixing of old trial potential: alpha(m:m-4)=   3.41      -2.07      -1.64       1.31
 scfcv_core: previous iteration took  5.60 [s]
 
 ITER STEP NUMBER     5
 vtorho: nnsclo_now=1, note that nnsclo,dbl_nnsclo,istep=0 0 5
 Total charge density [el/Bohr^3]
      Maximum=    8.8559E-02  at reduced coord.    0.0250    0.0250    0.9250
      Minimum=    4.6455E-08  at reduced coord.    0.6000    0.2875    0.2750
   Integrated=    8.0000E+00
 ETOT  5  -7.6185279236186     3.838E-01 1.138E-02 1.248E+05
 scprqt: <Vxc>= -4.0810883E-02 hartree
 
 Pulay update with  4 previous iterations:
 mixing of old trial potential: alpha(m:m-4)=   1.12      0.834     -0.537      -1.51       1.10
 scfcv_core: previous iteration took  5.61 [s]
 
 ITER STEP NUMBER     6
 vtorho: nnsclo_now=1, note that nnsclo,dbl_nnsclo,istep=0 0 6
 Total charge density [el/Bohr^3]
      Maximum=    7.9786E-02  at reduced coord.    0.0250    0.0250    0.9250
      Minimum=    0.0000E+00  at reduced coord.    0.7000    0.5000    0.0000
   Integrated=    8.0000E+00
 ETOT  6  -7.8192370994409    -2.007E-01 1.545E-04 2.003E+04
 scprqt: <Vxc>= -4.4509637E-02 hartree
 
 Pulay update with  5 previous iterations:
 mixing of old trial potential: alpha(m:m-4)=   1.35     -0.344     -0.171      0.294     -0.399
 scfcv_core: previous iteration took  5.64 [s]
 
 ITER STEP NUMBER     7
 vtorho: nnsclo_now=1, note that nnsclo,dbl_nnsclo,istep=0 0 7
 Total charge density [el/Bohr^3]
      Maximum=    5.8950E-02  at reduced coord.    0.0375    0.0375    0.9250
      Minimum=    2.3162E-08  at reduced coord.    0.5750    0.5750    0.2750
   Integrated=    8.0000E+00
 ETOT  7  -8.0605988799924    -2.414E-01 1.372E-04 1.579E+03
 scprqt: <Vxc>= -5.9918251E-02 hartree
 
 Pulay update with  6 previous iterations:
 mixing of old trial potential: alpha(m:m-4)=   1.11      0.551E-01 -0.125     -0.284      0.233
 scfcv_core: previous iteration took  5.26 [s]
 
 ITER STEP NUMBER     8
 vtorho: nnsclo_now=1, note that nnsclo,dbl_nnsclo,istep=0 0 8
 Total charge density [el/Bohr^3]
      Maximum=    5.2548E-02  at reduced coord.    0.0250    0.0500    0.9250
      Minimum=    1.6038E-07  at reduced coord.    0.5000    0.5000    0.5000
   Integrated=    8.0000E+00
 ETOT  8  -8.0678607747582    -7.262E-03 3.007E-05 1.094E+02
 scprqt: <Vxc>= -6.7058536E-02 hartree
 
 Pulay update with  7 previous iterations:
 mixing of old trial potential: alpha(m:m-4)=   1.19     -0.229      0.317E-01  0.339E-01 -0.582E-01
 scfcv_core: previous iteration took  5.65 [s]
 
 ITER STEP NUMBER     9
 vtorho: nnsclo_now=1, note that nnsclo,dbl_nnsclo,istep=0 0 9
 Total charge density [el/Bohr^3]
      Maximum=    5.4637E-02  at reduced coord.    0.0250    0.0500    0.9250
      Minimum=    4.8761E-08  at reduced coord.    0.5000    0.5000    0.5000
   Integrated=    8.0000E+00
 ETOT  9  -8.0707765161527    -2.916E-03 1.308E-05 2.060E+01
 scprqt: <Vxc>= -6.4604730E-02 hartree
 
 Pulay update with  7 previous iterations:
 mixing of old trial potential: alpha(m:m-4)=   1.05      0.217     -0.284     -0.422E-01  0.552E-01
 scfcv_core: previous iteration took  5.79 [s]
 
 ITER STEP NUMBER    10
 vtorho: nnsclo_now=1, note that nnsclo,dbl_nnsclo,istep=0 0 10
 Total charge density [el/Bohr^3]
      Maximum=    5.4996E-02  at reduced coord.    0.0250    0.0500    0.9250
      Minimum=    1.4629E-07  at reduced coord.    0.5000    0.4875    0.4875
   Integrated=    8.0000E+00
 ETOT 10  -8.0711498944837    -3.734E-04 5.520E-05 8.092E+00
 scprqt: <Vxc>= -6.4282454E-02 hartree
 
 Pulay update with  7 previous iterations:
 mixing of old trial potential: alpha(m:m-4)=  0.379      0.578      0.227     -0.202     -0.190E-01
 scfcv_core: previous iteration took  5.74 [s]
 
 ITER STEP NUMBER    11
 vtorho: nnsclo_now=1, note that nnsclo,dbl_nnsclo,istep=0 0 11
 Total charge density [el/Bohr^3]
      Maximum=    5.4462E-02  at reduced coord.    0.0250    0.0500    0.9250
      Minimum=    9.3090E-08  at reduced coord.    0.5000    0.5000    0.5000
   Integrated=    8.0000E+00
 ETOT 11  -8.0715719834491    -4.221E-04 5.238E-05 3.113E+00
 scprqt: <Vxc>= -6.5245070E-02 hartree
 
 Pulay update with  7 previous iterations:
 mixing of old trial potential: alpha(m:m-4)=  0.937      0.318     -0.271     -0.246E-02  0.331E-01
 scfcv_core: previous iteration took  5.79 [s]
 
 ITER STEP NUMBER    12
 vtorho: nnsclo_now=1, note that nnsclo,dbl_nnsclo,istep=0 0 12
 Total charge density [el/Bohr^3]
      Maximum=    5.4468E-02  at reduced coord.    0.0250    0.0500    0.9250
      Minimum=    1.0150E-07  at reduced coord.    0.5000    0.5000    0.5000
   Integrated=    8.0000E+00
 ETOT 12  -8.0717549814952    -1.830E-04 3.606E-05 1.062E+00
 scprqt: <Vxc>= -6.5139757E-02 hartree
 
 Pulay update with  7 previous iterations:
 mixing of old trial potential: alpha(m:m-4)=  0.884     -0.305E-01  0.248     -0.863E-01 -0.213E-01
 scfcv_core: previous iteration took  5.69 [s]
 
 ITER STEP NUMBER    13
 vtorho: nnsclo_now=1, note that nnsclo,dbl_nnsclo,istep=0 0 13
 Total charge density [el/Bohr^3]
      Maximum=    5.4483E-02  at reduced coord.    0.0250    0.0500    0.9250
      Minimum=    8.5123E-08  at reduced coord.    0.5000    0.5000    0.5000
   Integrated=    8.0000E+00
 ETOT 13  -8.0718817446273    -1.268E-04 4.622E-05 4.725E-01
 scprqt: <Vxc>= -6.5243219E-02 hartree
 
 Pulay update with  7 previous iterations:
 mixing of old trial potential: alpha(m:m-4)=  0.752      0.367     -0.301      0.202     -0.215E-01
 scfcv_core: previous iteration took  5.65 [s]
 
 ITER STEP NUMBER    14
 vtorho: nnsclo_now=1, note that nnsclo,dbl_nnsclo,istep=0 0 14
 Total charge density [el/Bohr^3]
      Maximum=    5.4497E-02  at reduced coord.    0.0250    0.0500    0.9250
      Minimum=    8.3718E-08  at reduced coord.    0.5000    0.5000    0.5000
   Integrated=    8.0000E+00
 ETOT 14  -8.0719764236018    -9.468E-05 3.178E-05 1.978E-01
 scprqt: <Vxc>= -6.5190266E-02 hartree
 
 Pulay update with  7 previous iterations:
 mixing of old trial potential: alpha(m:m-4)=  0.546      0.422      0.152     -0.287      0.164
 scfcv_core: previous iteration took  5.63 [s]
 
 ITER STEP NUMBER    15
 vtorho: nnsclo_now=1, note that nnsclo,dbl_nnsclo,istep=0 0 15
 Total charge density [el/Bohr^3]
      Maximum=    5.4524E-02  at reduced coord.    0.0250    0.0500    0.9250
      Minimum=    8.3204E-08  at reduced coord.    0.5000    0.5000    0.5000
   Integrated=    8.0000E+00
 ETOT 15  -8.0720506964029    -7.427E-05 3.695E-05 1.237E-01
 scprqt: <Vxc>= -6.5178582E-02 hartree
 
 Pulay update with  7 previous iterations:
 mixing of old trial potential: alpha(m:m-4)=  0.857      0.360     -0.260      0.812E-01 -0.160
 scfcv_core: previous iteration took  5.66 [s]
 
 ITER STEP NUMBER    16
 vtorho: nnsclo_now=1, note that nnsclo,dbl_nnsclo,istep=0 0 16
 Total charge density [el/Bohr^3]
      Maximum=    5.4528E-02  at reduced coord.    0.0250    0.0500    0.9250
      Minimum=    7.6833E-08  at reduced coord.    0.5000    0.5000    0.5000
   Integrated=    8.0000E+00
 ETOT 16  -8.0721079898368    -5.729E-05 2.106E-05 5.723E-02
 scprqt: <Vxc>= -6.5162004E-02 hartree
 
 Pulay update with  7 previous iterations:
 mixing of old trial potential: alpha(m:m-4)=  0.657      0.489     -0.163     -0.729E-01  0.131
 scfcv_core: previous iteration took  5.72 [s]
 
 ITER STEP NUMBER    17
 vtorho: nnsclo_now=1, note that nnsclo,dbl_nnsclo,istep=0 0 17
 Total charge density [el/Bohr^3]
      Maximum=    5.4536E-02  at reduced coord.    0.0250    0.0500    0.9250
      Minimum=    8.3130E-08  at reduced coord.    0.5000    0.5000    0.5000
   Integrated=    8.0000E+00
 ETOT 17  -8.0721541710029    -4.618E-05 2.263E-05 6.657E-02
 scprqt: <Vxc>= -6.5155258E-02 hartree
 
 Pulay update with  7 previous iterations:
 mixing of old trial potential: alpha(m:m-4)=   1.23      0.529      -1.02     -0.284E-01  0.220
 scfcv_core: previous iteration took  5.66 [s]
 
 ITER STEP NUMBER    18
 vtorho: nnsclo_now=1, note that nnsclo,dbl_nnsclo,istep=0 0 18
 Total charge density [el/Bohr^3]
      Maximum=    5.4533E-02  at reduced coord.    0.0250    0.0500    0.9250
      Minimum=    7.7809E-08  at reduced coord.    0.5000    0.5000    0.5000
   Integrated=    8.0000E+00
 ETOT 18  -8.0721927826680    -3.861E-05 1.620E-05 3.891E-02
 scprqt: <Vxc>= -6.5163384E-02 hartree
 
 Pulay update with  7 previous iterations:
 mixing of old trial potential: alpha(m:m-4)=   2.00      0.586E-01  -1.00     -0.543E-01 -0.192
 scfcv_core: previous iteration took  5.64 [s]
 
 ITER STEP NUMBER    19
 vtorho: nnsclo_now=1, note that nnsclo,dbl_nnsclo,istep=0 0 19
 Total charge density [el/Bohr^3]
      Maximum=    5.4531E-02  at reduced coord.    0.0250    0.0500    0.9250
      Minimum=    8.4740E-08  at reduced coord.    0.5000    0.5000    0.5000
   Integrated=    8.0000E+00
 ETOT 19  -8.0722249547077    -3.217E-05 1.338E-05 3.971E-02
 scprqt: <Vxc>= -6.5172348E-02 hartree
 
 Pulay update with  7 previous iterations:
 mixing of old trial potential: alpha(m:m-4)=  0.881      0.714     -0.748     -0.153      0.304
 scfcv_core: previous iteration took  5.69 [s]
 
 ITER STEP NUMBER    20
 vtorho: nnsclo_now=1, note that nnsclo,dbl_nnsclo,istep=0 0 20
 Total charge density [el/Bohr^3]
      Maximum=    5.4523E-02  at reduced coord.    0.0250    0.0500    0.9250
      Minimum=    8.0976E-08  at reduced coord.    0.5000    0.5000    0.5000
   Integrated=    8.0000E+00
 ETOT 20  -8.0722529305989    -2.798E-05 9.271E-06 1.804E-02
 scprqt: <Vxc>= -6.5190441E-02 hartree
 
 Pulay update with  7 previous iterations:
 mixing of old trial potential: alpha(m:m-4)=  0.840      0.430     -0.210     -0.381      0.468E-01
 scfcv_core: previous iteration took  5.78 [s]
 
 ITER STEP NUMBER    21
 vtorho: nnsclo_now=1, note that nnsclo,dbl_nnsclo,istep=0 0 21
 Total charge density [el/Bohr^3]
      Maximum=    5.4520E-02  at reduced coord.    0.0250    0.0500    0.9250
      Minimum=    8.7177E-08  at reduced coord.    0.5000    0.5000    0.5000
   Integrated=    8.0000E+00
 ETOT 21  -8.0722774264201    -2.450E-05 7.749E-06 1.847E-02
 scprqt: <Vxc>= -6.5204820E-02 hartree
 
 Pulay update with  7 previous iterations:
 mixing of old trial potential: alpha(m:m-4)=  0.387      0.641      0.107     -0.139     -0.118
 scfcv_core: previous iteration took  5.49 [s]
 
 ITER STEP NUMBER    22
 vtorho: nnsclo_now=1, note that nnsclo,dbl_nnsclo,istep=0 0 22
 Total charge density [el/Bohr^3]
      Maximum=    5.4519E-02  at reduced coord.    0.0250    0.0500    0.9250
      Minimum=    8.2614E-08  at reduced coord.    0.5000    0.5000    0.5000
   Integrated=    8.0000E+00
 ETOT 22  -8.0722994785902    -2.205E-05 9.014E-06 9.708E-03
 scprqt: <Vxc>= -6.5212718E-02 hartree
 
 Pulay update with  7 previous iterations:
 mixing of old trial potential: alpha(m:m-4)=   1.02      0.223     -0.375      0.251     -0.340
 scfcv_core: previous iteration took  5.73 [s]
 
 ITER STEP NUMBER    23
 vtorho: nnsclo_now=1, note that nnsclo,dbl_nnsclo,istep=0 0 23
 Total charge density [el/Bohr^3]
      Maximum=    5.4518E-02  at reduced coord.    0.0250    0.0500    0.9250
      Minimum=    8.8424E-08  at reduced coord.    0.5000    0.5000    0.5000
   Integrated=    8.0000E+00
 ETOT 23  -8.0723197177817    -2.024E-05 4.419E-06 1.403E-02
 scprqt: <Vxc>= -6.5218793E-02 hartree
 
 Pulay update with  7 previous iterations:
 mixing of old trial potential: alpha(m:m-4)=   1.83       1.07      -1.80     -0.355      0.493
 scfcv_core: previous iteration took  5.76 [s]
 
 ITER STEP NUMBER    24
 vtorho: nnsclo_now=1, note that nnsclo,dbl_nnsclo,istep=0 0 24
 Total charge density [el/Bohr^3]
      Maximum=    5.4518E-02  at reduced coord.    0.0250    0.0500    0.9250
      Minimum=    8.4081E-08  at reduced coord.    0.5000    0.5000    0.5000
   Integrated=    8.0000E+00
 ETOT 24  -8.0723386441411    -1.893E-05 9.337E-06 3.598E-03
 scprqt: <Vxc>= -6.5226670E-02 hartree
 
 Pulay update with  7 previous iterations:
 mixing of old trial potential: alpha(m:m-4)=  0.905      0.507     -0.261      0.952E-01 -0.122
 scfcv_core: previous iteration took  5.73 [s]
 
 ITER STEP NUMBER    25
 vtorho: nnsclo_now=1, note that nnsclo,dbl_nnsclo,istep=0 0 25
 Total charge density [el/Bohr^3]
      Maximum=    5.4516E-02  at reduced coord.    0.0250    0.0500    0.9250
      Minimum=    8.9944E-08  at reduced coord.    0.5000    0.5000    0.5000
   Integrated=    8.0000E+00
 ETOT 25  -8.0723565744117    -1.793E-05 3.408E-06 6.141E-03
 scprqt: <Vxc>= -6.5235670E-02 hartree
 
 Pulay update with  7 previous iterations:
 mixing of old trial potential: alpha(m:m-4)=   1.55     -0.214     -0.630       1.12     -0.749
 scfcv_core: previous iteration took  5.74 [s]
 
 ITER STEP NUMBER    26
 vtorho: nnsclo_now=1, note that nnsclo,dbl_nnsclo,istep=0 0 26
 Total charge density [el/Bohr^3]
      Maximum=    5.4517E-02  at reduced coord.    0.0250    0.0500    0.9250
      Minimum=    8.5611E-08  at reduced coord.    0.5000    0.5000    0.5000
   Integrated=    8.0000E+00
 ETOT 26  -8.0723737394173    -1.717E-05 9.497E-06 1.520E-03
 scprqt: <Vxc>= -6.5241612E-02 hartree
 
 Pulay update with  7 previous iterations:
 mixing of old trial potential: alpha(m:m-4)=  0.593       1.17     -0.543     -0.410      0.551
 scfcv_core: previous iteration took  5.66 [s]
 
 ITER STEP NUMBER    27
 vtorho: nnsclo_now=1, note that nnsclo,dbl_nnsclo,istep=0 0 27
 Total charge density [el/Bohr^3]
      Maximum=    5.4514E-02  at reduced coord.    0.0250    0.0500    0.9250
      Minimum=    9.1303E-08  at reduced coord.    0.5000    0.5000    0.5000
   Integrated=    8.0000E+00
 ETOT 27  -8.0723903297629    -1.659E-05 3.442E-06 3.729E-03
 scprqt: <Vxc>= -6.5249637E-02 hartree
 
 Pulay update with  7 previous iterations:
 mixing of old trial potential: alpha(m:m-4)=   1.02      0.256     -0.384      0.166     -0.127
 scfcv_core: previous iteration took  5.63 [s]
 
 ITER STEP NUMBER    28
 vtorho: nnsclo_now=1, note that nnsclo,dbl_nnsclo,istep=0 0 28
 Total charge density [el/Bohr^3]
      Maximum=    5.4515E-02  at reduced coord.    0.0250    0.0500    0.9250
      Minimum=    8.7158E-08  at reduced coord.    0.5000    0.5000    0.5000
   Integrated=    8.0000E+00
 ETOT 28  -8.0724064473561    -1.612E-05 9.475E-06 1.438E-03
 scprqt: <Vxc>= -6.5255048E-02 hartree
 
 Pulay update with  7 previous iterations:
 mixing of old trial potential: alpha(m:m-4)= -0.140       1.03      0.421     -0.406      0.126
 scfcv_core: previous iteration took  5.67 [s]
 
 ITER STEP NUMBER    29
 vtorho: nnsclo_now=1, note that nnsclo,dbl_nnsclo,istep=0 0 29
 Total charge density [el/Bohr^3]
      Maximum=    5.4512E-02  at reduced coord.    0.0250    0.0500    0.9250
      Minimum=    9.2500E-08  at reduced coord.    0.5000    0.5000    0.5000
   Integrated=    8.0000E+00
 ETOT 29  -8.0724222018228    -1.575E-05 3.405E-06 3.833E-03
 scprqt: <Vxc>= -6.5261987E-02 hartree
 
 Pulay update with  7 previous iterations:
 mixing of old trial potential: alpha(m:m-4)= -0.404E-02  0.106E-01   1.15      0.171     -0.533
 scfcv_core: previous iteration took  5.60 [s]
 
 ITER STEP NUMBER    30
 vtorho: nnsclo_now=1, note that nnsclo,dbl_nnsclo,istep=0 0 30
 Total charge density [el/Bohr^3]
      Maximum=    5.4513E-02  at reduced coord.    0.0250    0.0500    0.9250
      Minimum=    8.8689E-08  at reduced coord.    0.5000    0.5000    0.5000
   Integrated=    8.0000E+00
 ETOT 30  -8.0724376191002    -1.542E-05 9.271E-06 1.303E-03
 scprqt: <Vxc>= -6.5268473E-02 hartree
 
 Pulay update with  7 previous iterations:
 mixing of old trial potential: alpha(m:m-4)= -0.849       1.15      0.947     -0.592      0.404
 
 Cartesian components of stress tensor (hartree/bohr^3)
  sigma(1 1)=  2.89501065E-06  sigma(3 2)=  0.00000000E+00
  sigma(2 2)=  2.89501065E-06  sigma(3 1)=  0.00000000E+00
  sigma(3 3)=  2.89501065E-06  sigma(2 1)=  0.00000000E+00
 

--- !ScfConvergenceWarning
message: |
    nstep 30 was not enough SCF cycles to converge.
...
 
 scprqt:  WARNING -
  nstep=   30 was not enough SCF cycles to converge;
  potential residual=  1.303E-03 exceeds tolvrs=  1.000E-08
 
 
   fftdatar_write: About to write data to: opto_TIM2_DEN with iomode: IO_MODE_FORTRAN
 IO operation completed. cpu:  0.01 [s] , wall:  0.02 [s]
- Creating HDf5 file with MPI-IO support: opto_GSR.nc
 Write iteration in HIST netCDF file
 
---OUTPUT-----------------------------------------------------------------------
 
 Cartesian coordinates (xcart) [bohr]
  1.28832033006864E-30  1.28832033006864E-30 -1.28832033006864E-30
  7.32853325544124E+00  7.32853325544124E+00  7.32853325544124E+00
 Reduced coordinates (xred)
  1.31846334576441E-31 -4.39487781921471E-32 -4.39487781921471E-32
  2.50000000000000E-01  2.50000000000000E-01  2.50000000000000E-01
 Cartesian forces (fcart) [Ha/bohr]; max,rms= 1.17574E-27 9.59989E-28 (free atoms)
 -1.17574205011576E-27  1.17574205011576E-27 -2.69049305150365E-43
  1.17574205011576E-27 -1.17574205011576E-27  2.69049305150365E-43
 Reduced forces (fred)
  3.54552721111779E-62 -1.72329294281881E-26  1.72329294281881E-26
 -3.54552721111779E-62  1.72329294281881E-26 -1.72329294281881E-26
 Scale of Primitive Cell (acell) [bohr]
  2.07282222442945E+01  2.07282222442945E+01  2.07282222442945E+01
 Real space primitive translations (rprimd) [bohr]
  1.46570665108825E+01  1.46570665108825E+01  1.31779831549324E-19
  1.31779831549305E-19  1.46570665108825E+01  1.46570665108825E+01
  1.46570665108825E+01  2.63559663098618E-19  1.46570665108825E+01
 Unitary Cell Volume (ucvol) [Bohr^3]=  6.29754343343412E+03
 Angles (23,13,12)= [degrees]
  6.00000000000000E+01  6.00000000000000E+01  6.00000000000000E+01
 Lengths [Bohr]
  2.07282222442945E+01  2.07282222442945E+01  2.07282222442945E+01
 Stress tensor in cartesian coordinates (strten) [Ha/bohr^3]
  2.89501065436196E-06  0.00000000000000E+00  0.00000000000000E+00
  0.00000000000000E+00  2.89501065436196E-06  0.00000000000000E+00
  0.00000000000000E+00  0.00000000000000E+00  2.89501065436196E-06
 Total energy (etotal) [Ha]= -8.07243761910016E+00
 
 Difference of energy with previous step (new-old):
           Absolute (Ha)=-3.82189E+00
           Relative     =-6.20287E-01
 fconv : at Broyd/MD step   2, gradients have not converged yet. 
  max grad (force/stress) = 2.8950E-04 > tolmxf= 5.0000E-05 ha/bohr (free atoms)
 
 
--- !WARNING
src_file: m_geometry.F90
src_line: 1455
message: |
    The new primitive vectors rprimd (an evolving quantity)
    are too large, given the initial rprimd and the accompanying dilatmx:     5.000000E+00
    An adequate value would have been dilatmx_new=     5.346190E+00
    As chkdilatmx=0, assume experienced user. Execution will continue.
...
 
 EXIT:           1           1
 mover: previous time step took 03:00 [minutes]
 
--- Iteration: ( 3/15) Internal Cycle: (1/1)
--------------------------------------------------------------------------------
 
 Cartesian coordinates (xcart) [bohr]
 -3.35842576001865E-26  3.35868278324841E-26 -1.28511614877947E-30
  7.31030646153956E+00  7.31030646153956E+00  7.31030646153956E+00
 Reduced coordinates (xred)
  1.31846334576467E-31  2.29709249092054E-27 -2.29718038847693E-27
  2.50000000000000E-01  2.50000000000000E-01  2.50000000000000E-01
 Scale of Primitive Cell (acell) [bohr]
  2.06766690860258E+01  2.06766690860258E+01  2.06766690860258E+01
 Real space primitive translations (rprimd) [bohr]
  1.46206129230791E+01  1.46206129230791E+01  4.31440419960592E-22
  5.06038867553548E-17  1.46206129230791E+01  1.46206129230791E+01
  1.46206129230791E+01 -5.06025924340949E-17  1.46206129230791E+01
 Unitary Cell Volume (ucvol) [Bohr^3]=  6.25067234220940E+03
 Angles (23,13,12)= [degrees]
  6.00000000000000E+01  6.00000000000000E+01  6.00000000000000E+01
 Lengths [Bohr]
  2.06766690860258E+01  2.06766690860258E+01  2.06766690860258E+01
 
---SELF-CONSISTENT-FIELD CONVERGENCE--------------------------------------------
 
 getcut: wavevector=  0.0000  0.0000  0.0000  ngfft=  80  80  80
         ecut(hartree)=     20.000   => boxcut(ratio)=   1.92189
 
 ITER STEP NUMBER     1
 vtorho: nnsclo_now=2, note that nnsclo,dbl_nnsclo,istep=0 0 1
 Total charge density [el/Bohr^3]
      Maximum=    5.4793E-02  at reduced coord.    0.0250    0.0500    0.9250
      Minimum=    7.9906E-08  at reduced coord.    0.5000    0.5000    0.5000
   Integrated=    8.0000E+00
 ETOT  1  -8.0725538845728    -8.073E+00 8.982E-06 1.228E+00
 scprqt: <Vxc>= -6.5198943E-02 hartree
 
 Simple mixing update:
  residual square of the potential:   6.202645821689780E-002
 scfcv_core: previous iteration took 10.70 [s]
 
 ITER STEP NUMBER     2
 vtorho: nnsclo_now=2, note that nnsclo,dbl_nnsclo,istep=0 0 2
 Total charge density [el/Bohr^3]
      Maximum=    5.4610E-02  at reduced coord.    0.0250    0.0500    0.9250
      Minimum=    9.0447E-08  at reduced coord.    0.5000    0.5000    0.5000
   Integrated=    8.0000E+00
 ETOT  2  -8.0726282342420    -7.435E-05 8.867E-06 6.243E-01
 scprqt: <Vxc>= -6.5403508E-02 hartree
 
 Pulay update with  1 previous iterations:
 mixing of old trial potential: alpha(m:m-4)=   1.14     -0.145
 scfcv_core: previous iteration took 10.54 [s]
 
 ITER STEP NUMBER     3
 vtorho: nnsclo_now=1, note that nnsclo,dbl_nnsclo,istep=0 0 3
 Total charge density [el/Bohr^3]
      Maximum=    5.4550E-02  at reduced coord.    0.0250    0.0500    0.9250
      Minimum=    9.4950E-08  at reduced coord.    0.5000    0.5000    0.5000
   Integrated=    8.0000E+00
 ETOT  3  -8.0726510493718    -2.282E-05 2.931E-06 3.757E-01
 scprqt: <Vxc>= -6.5489509E-02 hartree
 
 Pulay update with  2 previous iterations:
 mixing of old trial potential: alpha(m:m-4)=   1.28     -0.302      0.226E-01
 scfcv_core: previous iteration took  5.63 [s]
 
 ITER STEP NUMBER     4
 vtorho: nnsclo_now=1, note that nnsclo,dbl_nnsclo,istep=0 0 4
 Total charge density [el/Bohr^3]
      Maximum=    5.4528E-02  at reduced coord.    0.0250    0.0500    0.9250
      Minimum=    9.9437E-08  at reduced coord.    0.5000    0.5000    0.5000
   Integrated=    8.0000E+00
 ETOT  4  -8.0726679702321    -1.692E-05 1.071E-05 2.439E-01
 scprqt: <Vxc>= -6.5552746E-02 hartree
 
 Pulay update with  3 previous iterations:
 mixing of old trial potential: alpha(m:m-4)=  0.797      0.986     -0.852      0.687E-01
 scfcv_core: previous iteration took  5.64 [s]
 
 ITER STEP NUMBER     5
 vtorho: nnsclo_now=1, note that nnsclo,dbl_nnsclo,istep=0 0 5
 Total charge density [el/Bohr^3]
      Maximum=    5.4517E-02  at reduced coord.    0.0250    0.0500    0.9250
      Minimum=    9.8950E-08  at reduced coord.    0.5000    0.5000    0.5000
   Integrated=    8.0000E+00
 ETOT  5  -8.0726833550319    -1.538E-05 3.315E-06 1.287E-01
 scprqt: <Vxc>= -6.5587755E-02 hartree
 
 Pulay update with  4 previous iterations:
 mixing of old trial potential: alpha(m:m-4)=  0.970     -0.162E-01  0.167     -0.644E-01 -0.567E-01
 scfcv_core: previous iteration took  5.74 [s]
 
 ITER STEP NUMBER     6
 vtorho: nnsclo_now=1, note that nnsclo,dbl_nnsclo,istep=0 0 6
 Total charge density [el/Bohr^3]
      Maximum=    5.4511E-02  at reduced coord.    0.0250    0.0500    0.9250
      Minimum=    9.9605E-08  at reduced coord.    0.5000    0.5000    0.5000
   Integrated=    8.0000E+00
 ETOT  6  -8.0726977792928    -1.442E-05 1.229E-05 9.286E-02
 scprqt: <Vxc>= -6.5604553E-02 hartree
 
 Pulay update with  5 previous iterations:
 mixing of old trial potential: alpha(m:m-4)=   3.49      -1.17      -2.27      0.735      0.251
 scfcv_core: previous iteration took  5.19 [s]
 
 ITER STEP NUMBER     7
 vtorho: nnsclo_now=1, note that nnsclo,dbl_nnsclo,istep=0 0 7
 Total charge density [el/Bohr^3]
      Maximum=    5.4505E-02  at reduced coord.    0.0250    0.0500    0.9250
      Minimum=    1.0194E-07  at reduced coord.    0.5000    0.5000    0.5000
   Integrated=    8.0000E+00
 ETOT  7  -8.0727119913529    -1.421E-05 3.710E-06 2.312E-02
 scprqt: <Vxc>= -6.5644764E-02 hartree
 
 Pulay update with  6 previous iterations:
 mixing of old trial potential: alpha(m:m-4)=  0.377       1.97     -0.218      -1.34     -0.148
 scfcv_core: previous iteration took  5.67 [s]
 
 ITER STEP NUMBER     8
 vtorho: nnsclo_now=1, note that nnsclo,dbl_nnsclo,istep=0 0 8
 Total charge density [el/Bohr^3]
      Maximum=    5.4503E-02  at reduced coord.    0.0250    0.0500    0.9250
      Minimum=    1.0192E-07  at reduced coord.    0.5000    0.5000    0.5000
   Integrated=    8.0000E+00
 ETOT  8  -8.0727257162024    -1.372E-05 1.358E-05 7.122E-03
 scprqt: <Vxc>= -6.5654043E-02 hartree
 
 Pulay update with  7 previous iterations:
 mixing of old trial potential: alpha(m:m-4)=   3.90      -1.84      -4.35       1.99       1.73
 scfcv_core: previous iteration took  5.64 [s]
 
 ITER STEP NUMBER     9
 vtorho: nnsclo_now=1, note that nnsclo,dbl_nnsclo,istep=0 0 9
salloc: Job 1811831 has exceeded its time limit and its allocation has been revoked.
srun: Job step aborted: Waiting up to 2 seconds for job step to finish.
slurmstepd: *** STEP 1811831.2 CANCELLED AT 2020-01-03T16:47:01 DUE TO TIME LIMIT on node001 ***
srun: error: node001: task 0: Exited with exit code 1
srun: Terminating job step 1811831.2

