
.Version 8.11.13 of ABINIT 
.(MPI version, prepared for a x86_64_linux_intel14.0 computer) 

.Copyright (C) 1998-2019 ABINIT group . 
 ABINIT comes with ABSOLUTELY NO WARRANTY.
 It is free software, and you are welcome to redistribute it
 under certain conditions (GNU General Public License,
 see ~abinit/COPYING or http://www.gnu.org/copyleft/gpl.txt).

 ABINIT is a project of the Universite Catholique de Louvain,
 Corning Inc. and other collaborators, see ~abinit/doc/developers/contributors.txt .
 Please read https://docs.abinit.org/theory/acknowledgments for suggested
 acknowledgments of the ABINIT effort.
 For more information, see https://www.abinit.org .

.Starting date : Tue 14 Jan 2020.
- ( at 17h25 )
  
- input  file    -> ddb.in
- output file    -> ddb.out
- root for input  files -> ddbi
- root for output files -> ddbo
 
 
 DATASET    1 : space group Fd -3 m (#227); Bravais cF (face-center cubic)
================================================================================
 Values of the parameters that define the memory need for DATASET  1.
     intxc =       0    ionmov =       0      iscf =       7    lmnmax =       6
     lnmax =       6     mgfft =      30  mpssoang =       3    mqgrid =    3001
     natom =       2  nloc_mem =       1    nspden =       1   nspinor =       1
    nsppol =       1      nsym =      48    n1xccc =    2501    ntypat =       1
    occopt =       1   xclevel =       2
-    mband =           4        mffmem =           1         mkmem =          10
       mpw =         863          nfft =       27000          nkpt =          10
================================================================================
P This job should need less than                      10.031 Mbytes of memory.
  Rough estimation (10% accuracy) of disk space for files :
_ WF disk file :      0.529 Mbytes ; DEN or POT disk file :      0.208 Mbytes.
================================================================================
 
 
 DATASET    2 : space group Fd -3 m (#227); Bravais cF (face-center cubic)
================================================================================
 Values of the parameters that define the memory need for DATASET  2 (RF).
     intxc =       0      iscf =      -3    lmnmax =       6     lnmax =       6
     mgfft =      30  mpssoang =       3    mqgrid =    3001     natom =       2
  nloc_mem =       1    nspden =       1   nspinor =       1    nsppol =       1
      nsym =      48    n1xccc =    2501    ntypat =       1    occopt =       1
   xclevel =       2
-    mband =           4        mffmem =           1         mkmem =         128
-   mkqmem =         128        mk1mem =         128           mpw =         863
      nfft =       27000          nkpt =         128
================================================================================
P This job should need less than                      29.184 Mbytes of memory.
  Rough estimation (10% accuracy) of disk space for files :
_ WF disk file :      6.744 Mbytes ; DEN or POT disk file :      0.208 Mbytes.
================================================================================
 
 
 DATASET    3 : space group Fd -3 m (#227); Bravais cF (face-center cubic)
================================================================================
 Values of the parameters that define the memory need for DATASET  3 (RF).
     intxc =       0      iscf =       7    lmnmax =       6     lnmax =       6
     mgfft =      30  mpssoang =       3    mqgrid =    3001     natom =       2
  nloc_mem =       1    nspden =       1   nspinor =       1    nsppol =       1
      nsym =      48    n1xccc =    2501    ntypat =       1    occopt =       1
   xclevel =       2
-    mband =           4        mffmem =           1         mkmem =         128
-   mkqmem =         128        mk1mem =         128           mpw =         863
      nfft =       27000          nkpt =         128
================================================================================
P This job should need less than                      29.390 Mbytes of memory.
  Rough estimation (10% accuracy) of disk space for files :
_ WF disk file :      6.744 Mbytes ; DEN or POT disk file :      0.208 Mbytes.
================================================================================
 
 
 DATASET    4 : space group Fd -3 m (#227); Bravais cF (face-center cubic)
================================================================================
 Values of the parameters that define the memory need for DATASET  4 (RF).
     intxc =       0      iscf =       7    lmnmax =       6     lnmax =       6
     mgfft =      30  mpssoang =       3    mqgrid =    3001     natom =       2
  nloc_mem =       1    nspden =       1   nspinor =       1    nsppol =       1
      nsym =      48    n1xccc =    2501    ntypat =       1    occopt =       1
   xclevel =       2
-    mband =           4        mffmem =           1         mkmem =         256
-   mkqmem =         256        mk1mem =         256           mpw =         863
      nfft =       27000          nkpt =         256
================================================================================
P This job should need less than                      53.683 Mbytes of memory.
  Rough estimation (10% accuracy) of disk space for files :
_ WF disk file :     13.486 Mbytes ; DEN or POT disk file :      0.208 Mbytes.
================================================================================
 
 
 DATASET    5 : space group Fd -3 m (#227); Bravais cF (face-center cubic)
================================================================================
 Values of the parameters that define the memory need for DATASET  5 (RF).
     intxc =       0      iscf =       7    lmnmax =       6     lnmax =       6
     mgfft =      30  mpssoang =       3    mqgrid =    3001     natom =       2
  nloc_mem =       1    nspden =       1   nspinor =       1    nsppol =       1
      nsym =      48    n1xccc =    2501    ntypat =       1    occopt =       1
   xclevel =       2
-    mband =           4        mffmem =           1         mkmem =         256
-   mkqmem =         256        mk1mem =         256           mpw =         863
      nfft =       27000          nkpt =         256
================================================================================
P This job should need less than                      53.683 Mbytes of memory.
  Rough estimation (10% accuracy) of disk space for files :
_ WF disk file :     13.486 Mbytes ; DEN or POT disk file :      0.208 Mbytes.
================================================================================
 
 
 DATASET    6 : space group Fd -3 m (#227); Bravais cF (face-center cubic)
================================================================================
 Values of the parameters that define the memory need for DATASET  6 (RF).
     intxc =       0      iscf =       7    lmnmax =       6     lnmax =       6
     mgfft =      30  mpssoang =       3    mqgrid =    3001     natom =       2
  nloc_mem =       1    nspden =       1   nspinor =       1    nsppol =       1
      nsym =      48    n1xccc =    2501    ntypat =       1    occopt =       1
   xclevel =       2
-    mband =           4        mffmem =           1         mkmem =         256
-   mkqmem =         256        mk1mem =         256           mpw =         863
      nfft =       27000          nkpt =         256
================================================================================
P This job should need less than                      53.683 Mbytes of memory.
  Rough estimation (10% accuracy) of disk space for files :
_ WF disk file :     13.486 Mbytes ; DEN or POT disk file :      0.208 Mbytes.
================================================================================
 
 
 DATASET    7 : space group Fd -3 m (#227); Bravais cF (face-center cubic)
================================================================================
 Values of the parameters that define the memory need for DATASET  7 (RF).
     intxc =       0      iscf =       7    lmnmax =       6     lnmax =       6
     mgfft =      30  mpssoang =       3    mqgrid =    3001     natom =       2
  nloc_mem =       1    nspden =       1   nspinor =       1    nsppol =       1
      nsym =      48    n1xccc =    2501    ntypat =       1    occopt =       1
   xclevel =       2
-    mband =           4        mffmem =           1         mkmem =         256
-   mkqmem =         256        mk1mem =         256           mpw =         863
      nfft =       27000          nkpt =         256
================================================================================
P This job should need less than                      53.683 Mbytes of memory.
  Rough estimation (10% accuracy) of disk space for files :
_ WF disk file :     13.486 Mbytes ; DEN or POT disk file :      0.208 Mbytes.
================================================================================
 
 
 DATASET    8 : space group Fd -3 m (#227); Bravais cF (face-center cubic)
================================================================================
 Values of the parameters that define the memory need for DATASET  8 (RF).
     intxc =       0      iscf =       7    lmnmax =       6     lnmax =       6
     mgfft =      30  mpssoang =       3    mqgrid =    3001     natom =       2
  nloc_mem =       1    nspden =       1   nspinor =       1    nsppol =       1
      nsym =      48    n1xccc =    2501    ntypat =       1    occopt =       1
   xclevel =       2
-    mband =           4        mffmem =           1         mkmem =         256
-   mkqmem =         256        mk1mem =         256           mpw =         863
      nfft =       27000          nkpt =         256
================================================================================
P This job should need less than                      53.683 Mbytes of memory.
  Rough estimation (10% accuracy) of disk space for files :
_ WF disk file :     13.486 Mbytes ; DEN or POT disk file :      0.208 Mbytes.
================================================================================
 
 
 DATASET    9 : space group Fd -3 m (#227); Bravais cF (face-center cubic)
================================================================================
 Values of the parameters that define the memory need for DATASET  9 (RF).
     intxc =       0      iscf =       7    lmnmax =       6     lnmax =       6
     mgfft =      30  mpssoang =       3    mqgrid =    3001     natom =       2
  nloc_mem =       1    nspden =       1   nspinor =       1    nsppol =       1
      nsym =      48    n1xccc =    2501    ntypat =       1    occopt =       1
   xclevel =       2
-    mband =           4        mffmem =           1         mkmem =         256
-   mkqmem =         256        mk1mem =         256           mpw =         863
      nfft =       27000          nkpt =         256
================================================================================
P This job should need less than                      53.683 Mbytes of memory.
  Rough estimation (10% accuracy) of disk space for files :
_ WF disk file :     13.486 Mbytes ; DEN or POT disk file :      0.208 Mbytes.
================================================================================
 
 
 DATASET   10 : space group Fd -3 m (#227); Bravais cF (face-center cubic)
================================================================================
 Values of the parameters that define the memory need for DATASET 10 (RF).
     intxc =       0      iscf =       7    lmnmax =       6     lnmax =       6
     mgfft =      30  mpssoang =       3    mqgrid =    3001     natom =       2
  nloc_mem =       1    nspden =       1   nspinor =       1    nsppol =       1
      nsym =      48    n1xccc =    2501    ntypat =       1    occopt =       1
   xclevel =       2
-    mband =           4        mffmem =           1         mkmem =         256
-   mkqmem =         256        mk1mem =         256           mpw =         863
      nfft =       27000          nkpt =         256
================================================================================
P This job should need less than                      53.683 Mbytes of memory.
  Rough estimation (10% accuracy) of disk space for files :
_ WF disk file :     13.486 Mbytes ; DEN or POT disk file :      0.208 Mbytes.
================================================================================
 
--------------------------------------------------------------------------------
------------- Echo of variables that govern the present computation ------------
--------------------------------------------------------------------------------
-
- outvars: echo of selected default values                                      
-   iomode0 =  0 , fftalg0 =312 , wfoptalg0 =  0
-
- outvars: echo of global parameters not present in the input file              
-  max_nthreads =    0
-
 -outvars: echo values of preprocessed input variables --------
            acell      7.3076524753E+00  7.3076524739E+00  7.3076524753E+00 Bohr
              amu      2.80855000E+01
           diemac      1.20000000E+01
             ecut      1.60000000E+01 Hartree
-          fftalg         312
           getddk1          0
           getddk2          0
           getddk3         -1
           getddk4          0
           getddk5          0
           getddk6          0
           getddk7          0
           getddk8          0
           getddk9          0
           getddk10         0
           getwfk1          0
           getwfk2          1
           getwfk3          1
           getwfk4          1
           getwfk5          1
           getwfk6          1
           getwfk7          1
           getwfk8          1
           getwfk9          1
           getwfk10         1
             iscf1          7
             iscf2         -3
             iscf3          7
             iscf4          7
             iscf5          7
             iscf6          7
             iscf7          7
             iscf8          7
             iscf9          7
             iscf10         7
              ixc          11
           jdtset        1    2    3    4    5    6    7    8    9   10
              kpt1    -1.25000000E-01 -2.50000000E-01  0.00000000E+00
                      -1.25000000E-01  5.00000000E-01  0.00000000E+00
                      -2.50000000E-01 -3.75000000E-01  0.00000000E+00
                      -1.25000000E-01 -3.75000000E-01  1.25000000E-01
                      -1.25000000E-01  2.50000000E-01  0.00000000E+00
                      -2.50000000E-01  3.75000000E-01  0.00000000E+00
                      -3.75000000E-01  5.00000000E-01  0.00000000E+00
                      -2.50000000E-01  5.00000000E-01  1.25000000E-01
                      -1.25000000E-01  0.00000000E+00  0.00000000E+00
                      -3.75000000E-01  0.00000000E+00  0.00000000E+00
              kpt2    -1.25000000E-01 -2.50000000E-01  0.00000000E+00
                      -2.50000000E-01 -1.25000000E-01  0.00000000E+00
                      -1.25000000E-01 -1.25000000E-01  1.25000000E-01
                      -1.25000000E-01  5.00000000E-01  0.00000000E+00
                      -2.50000000E-01 -3.75000000E-01  0.00000000E+00
                      -1.25000000E-01 -3.75000000E-01  1.25000000E-01
                      -3.75000000E-01 -2.50000000E-01  0.00000000E+00
                      -2.50000000E-01 -2.50000000E-01  1.25000000E-01
                      -1.25000000E-01 -2.50000000E-01  2.50000000E-01
                       5.00000000E-01 -1.25000000E-01  0.00000000E+00
                      -3.75000000E-01 -1.25000000E-01  1.25000000E-01
                      -2.50000000E-01 -1.25000000E-01  2.50000000E-01
                      -1.25000000E-01 -1.25000000E-01  3.75000000E-01
                      -1.25000000E-01  2.50000000E-01  0.00000000E+00
                      -2.50000000E-01  3.75000000E-01  0.00000000E+00
                      -1.25000000E-01  3.75000000E-01  1.25000000E-01
                      -3.75000000E-01  5.00000000E-01  0.00000000E+00
                      -2.50000000E-01  5.00000000E-01  1.25000000E-01
                      -1.25000000E-01  5.00000000E-01  2.50000000E-01
                       5.00000000E-01 -3.75000000E-01  0.00000000E+00
                      -3.75000000E-01 -3.75000000E-01  1.25000000E-01
                      -2.50000000E-01 -3.75000000E-01  2.50000000E-01
                      -1.25000000E-01 -3.75000000E-01  3.75000000E-01
                       3.75000000E-01 -2.50000000E-01  0.00000000E+00
                       5.00000000E-01 -2.50000000E-01  1.25000000E-01
                      -3.75000000E-01 -2.50000000E-01  2.50000000E-01
                      -2.50000000E-01 -2.50000000E-01  3.75000000E-01
                      -1.25000000E-01 -2.50000000E-01  5.00000000E-01
                       2.50000000E-01 -1.25000000E-01  0.00000000E+00
                       3.75000000E-01 -1.25000000E-01  1.25000000E-01
                       5.00000000E-01 -1.25000000E-01  2.50000000E-01
                      -3.75000000E-01 -1.25000000E-01  3.75000000E-01
                      -2.50000000E-01 -1.25000000E-01  5.00000000E-01
                      -1.25000000E-01 -1.25000000E-01 -3.75000000E-01
                      -1.25000000E-01  0.00000000E+00  0.00000000E+00
                      -1.25000000E-01  1.25000000E-01  1.25000000E-01
                      -2.50000000E-01  2.50000000E-01  1.25000000E-01
                      -1.25000000E-01  2.50000000E-01  2.50000000E-01
                      -3.75000000E-01  3.75000000E-01  1.25000000E-01
                      -1.25000000E-01  3.75000000E-01  3.75000000E-01
                       5.00000000E-01  5.00000000E-01  1.25000000E-01
                      -3.75000000E-01  5.00000000E-01  2.50000000E-01
                      -2.50000000E-01  5.00000000E-01  3.75000000E-01
                      -1.25000000E-01  5.00000000E-01  5.00000000E-01
                       3.75000000E-01 -3.75000000E-01  1.25000000E-01
                       5.00000000E-01 -3.75000000E-01  2.50000000E-01
                      -3.75000000E-01 -3.75000000E-01  3.75000000E-01
                      -2.50000000E-01 -3.75000000E-01  5.00000000E-01
                      -1.25000000E-01 -3.75000000E-01 -3.75000000E-01
                       2.50000000E-01 -2.50000000E-01  1.25000000E-01
              kpt3    -1.25000000E-01 -2.50000000E-01  0.00000000E+00
                      -2.50000000E-01 -1.25000000E-01  0.00000000E+00
                      -1.25000000E-01 -1.25000000E-01  1.25000000E-01
                      -1.25000000E-01  5.00000000E-01  0.00000000E+00
                      -2.50000000E-01 -3.75000000E-01  0.00000000E+00
                      -1.25000000E-01 -3.75000000E-01  1.25000000E-01
                      -3.75000000E-01 -2.50000000E-01  0.00000000E+00
                      -2.50000000E-01 -2.50000000E-01  1.25000000E-01
                      -1.25000000E-01 -2.50000000E-01  2.50000000E-01
                       5.00000000E-01 -1.25000000E-01  0.00000000E+00
                      -3.75000000E-01 -1.25000000E-01  1.25000000E-01
                      -2.50000000E-01 -1.25000000E-01  2.50000000E-01
                      -1.25000000E-01 -1.25000000E-01  3.75000000E-01
                      -1.25000000E-01  2.50000000E-01  0.00000000E+00
                      -2.50000000E-01  3.75000000E-01  0.00000000E+00
                      -1.25000000E-01  3.75000000E-01  1.25000000E-01
                      -3.75000000E-01  5.00000000E-01  0.00000000E+00
                      -2.50000000E-01  5.00000000E-01  1.25000000E-01
                      -1.25000000E-01  5.00000000E-01  2.50000000E-01
                       5.00000000E-01 -3.75000000E-01  0.00000000E+00
                      -3.75000000E-01 -3.75000000E-01  1.25000000E-01
                      -2.50000000E-01 -3.75000000E-01  2.50000000E-01
                      -1.25000000E-01 -3.75000000E-01  3.75000000E-01
                       3.75000000E-01 -2.50000000E-01  0.00000000E+00
                       5.00000000E-01 -2.50000000E-01  1.25000000E-01
                      -3.75000000E-01 -2.50000000E-01  2.50000000E-01
                      -2.50000000E-01 -2.50000000E-01  3.75000000E-01
                      -1.25000000E-01 -2.50000000E-01  5.00000000E-01
                       2.50000000E-01 -1.25000000E-01  0.00000000E+00
                       3.75000000E-01 -1.25000000E-01  1.25000000E-01
                       5.00000000E-01 -1.25000000E-01  2.50000000E-01
                      -3.75000000E-01 -1.25000000E-01  3.75000000E-01
                      -2.50000000E-01 -1.25000000E-01  5.00000000E-01
                      -1.25000000E-01 -1.25000000E-01 -3.75000000E-01
                      -1.25000000E-01  0.00000000E+00  0.00000000E+00
                      -1.25000000E-01  1.25000000E-01  1.25000000E-01
                      -2.50000000E-01  2.50000000E-01  1.25000000E-01
                      -1.25000000E-01  2.50000000E-01  2.50000000E-01
                      -3.75000000E-01  3.75000000E-01  1.25000000E-01
                      -1.25000000E-01  3.75000000E-01  3.75000000E-01
                       5.00000000E-01  5.00000000E-01  1.25000000E-01
                      -3.75000000E-01  5.00000000E-01  2.50000000E-01
                      -2.50000000E-01  5.00000000E-01  3.75000000E-01
                      -1.25000000E-01  5.00000000E-01  5.00000000E-01
                       3.75000000E-01 -3.75000000E-01  1.25000000E-01
                       5.00000000E-01 -3.75000000E-01  2.50000000E-01
                      -3.75000000E-01 -3.75000000E-01  3.75000000E-01
                      -2.50000000E-01 -3.75000000E-01  5.00000000E-01
                      -1.25000000E-01 -3.75000000E-01 -3.75000000E-01
                       2.50000000E-01 -2.50000000E-01  1.25000000E-01
              kpt4    -1.25000000E-01 -2.50000000E-01  0.00000000E+00
                      -2.50000000E-01 -1.25000000E-01  0.00000000E+00
                      -1.25000000E-01 -1.25000000E-01  1.25000000E-01
                      -1.25000000E-01  5.00000000E-01  0.00000000E+00
                      -2.50000000E-01 -3.75000000E-01  0.00000000E+00
                      -1.25000000E-01 -3.75000000E-01  1.25000000E-01
                      -3.75000000E-01 -2.50000000E-01  0.00000000E+00
                      -2.50000000E-01 -2.50000000E-01  1.25000000E-01
                      -1.25000000E-01 -2.50000000E-01  2.50000000E-01
                       5.00000000E-01 -1.25000000E-01  0.00000000E+00
                      -3.75000000E-01 -1.25000000E-01  1.25000000E-01
                      -2.50000000E-01 -1.25000000E-01  2.50000000E-01
                      -1.25000000E-01 -1.25000000E-01  3.75000000E-01
                      -1.25000000E-01  2.50000000E-01  0.00000000E+00
                      -2.50000000E-01  3.75000000E-01  0.00000000E+00
                      -1.25000000E-01  3.75000000E-01  1.25000000E-01
                      -3.75000000E-01  5.00000000E-01  0.00000000E+00
                      -2.50000000E-01  5.00000000E-01  1.25000000E-01
                      -1.25000000E-01  5.00000000E-01  2.50000000E-01
                       5.00000000E-01 -3.75000000E-01  0.00000000E+00
                      -3.75000000E-01 -3.75000000E-01  1.25000000E-01
                      -2.50000000E-01 -3.75000000E-01  2.50000000E-01
                      -1.25000000E-01 -3.75000000E-01  3.75000000E-01
                       3.75000000E-01 -2.50000000E-01  0.00000000E+00
                       5.00000000E-01 -2.50000000E-01  1.25000000E-01
                      -3.75000000E-01 -2.50000000E-01  2.50000000E-01
                      -2.50000000E-01 -2.50000000E-01  3.75000000E-01
                      -1.25000000E-01 -2.50000000E-01  5.00000000E-01
                       2.50000000E-01 -1.25000000E-01  0.00000000E+00
                       3.75000000E-01 -1.25000000E-01  1.25000000E-01
                       5.00000000E-01 -1.25000000E-01  2.50000000E-01
                      -3.75000000E-01 -1.25000000E-01  3.75000000E-01
                      -2.50000000E-01 -1.25000000E-01  5.00000000E-01
                      -1.25000000E-01 -1.25000000E-01 -3.75000000E-01
                      -1.25000000E-01  0.00000000E+00  0.00000000E+00
                      -2.50000000E-01  1.25000000E-01  0.00000000E+00
                      -1.25000000E-01  1.25000000E-01  1.25000000E-01
                      -3.75000000E-01  2.50000000E-01  0.00000000E+00
                      -2.50000000E-01  2.50000000E-01  1.25000000E-01
                      -1.25000000E-01  2.50000000E-01  2.50000000E-01
                       5.00000000E-01  3.75000000E-01  0.00000000E+00
                      -3.75000000E-01  3.75000000E-01  1.25000000E-01
                      -2.50000000E-01  3.75000000E-01  2.50000000E-01
                      -1.25000000E-01  3.75000000E-01  3.75000000E-01
                       3.75000000E-01  5.00000000E-01  0.00000000E+00
                       5.00000000E-01  5.00000000E-01  1.25000000E-01
                      -3.75000000E-01  5.00000000E-01  2.50000000E-01
                      -2.50000000E-01  5.00000000E-01  3.75000000E-01
                      -1.25000000E-01  5.00000000E-01  5.00000000E-01
                       2.50000000E-01 -3.75000000E-01  0.00000000E+00
              kpt5    -1.25000000E-01 -2.50000000E-01  0.00000000E+00
                      -2.50000000E-01 -1.25000000E-01  0.00000000E+00
                      -1.25000000E-01 -1.25000000E-01  1.25000000E-01
                      -1.25000000E-01  5.00000000E-01  0.00000000E+00
                      -2.50000000E-01 -3.75000000E-01  0.00000000E+00
                      -1.25000000E-01 -3.75000000E-01  1.25000000E-01
                      -3.75000000E-01 -2.50000000E-01  0.00000000E+00
                      -2.50000000E-01 -2.50000000E-01  1.25000000E-01
                      -1.25000000E-01 -2.50000000E-01  2.50000000E-01
                       5.00000000E-01 -1.25000000E-01  0.00000000E+00
                      -3.75000000E-01 -1.25000000E-01  1.25000000E-01
                      -2.50000000E-01 -1.25000000E-01  2.50000000E-01
                      -1.25000000E-01 -1.25000000E-01  3.75000000E-01
                      -1.25000000E-01  2.50000000E-01  0.00000000E+00
                      -2.50000000E-01  3.75000000E-01  0.00000000E+00
                      -1.25000000E-01  3.75000000E-01  1.25000000E-01
                      -3.75000000E-01  5.00000000E-01  0.00000000E+00
                      -2.50000000E-01  5.00000000E-01  1.25000000E-01
                      -1.25000000E-01  5.00000000E-01  2.50000000E-01
                       5.00000000E-01 -3.75000000E-01  0.00000000E+00
                      -3.75000000E-01 -3.75000000E-01  1.25000000E-01
                      -2.50000000E-01 -3.75000000E-01  2.50000000E-01
                      -1.25000000E-01 -3.75000000E-01  3.75000000E-01
                       3.75000000E-01 -2.50000000E-01  0.00000000E+00
                       5.00000000E-01 -2.50000000E-01  1.25000000E-01
                      -3.75000000E-01 -2.50000000E-01  2.50000000E-01
                      -2.50000000E-01 -2.50000000E-01  3.75000000E-01
                      -1.25000000E-01 -2.50000000E-01  5.00000000E-01
                       2.50000000E-01 -1.25000000E-01  0.00000000E+00
                       3.75000000E-01 -1.25000000E-01  1.25000000E-01
                       5.00000000E-01 -1.25000000E-01  2.50000000E-01
                      -3.75000000E-01 -1.25000000E-01  3.75000000E-01
                      -2.50000000E-01 -1.25000000E-01  5.00000000E-01
                      -1.25000000E-01 -1.25000000E-01 -3.75000000E-01
                      -1.25000000E-01  0.00000000E+00  0.00000000E+00
                      -2.50000000E-01  1.25000000E-01  0.00000000E+00
                      -1.25000000E-01  1.25000000E-01  1.25000000E-01
                      -3.75000000E-01  2.50000000E-01  0.00000000E+00
                      -2.50000000E-01  2.50000000E-01  1.25000000E-01
                      -1.25000000E-01  2.50000000E-01  2.50000000E-01
                       5.00000000E-01  3.75000000E-01  0.00000000E+00
                      -3.75000000E-01  3.75000000E-01  1.25000000E-01
                      -2.50000000E-01  3.75000000E-01  2.50000000E-01
                      -1.25000000E-01  3.75000000E-01  3.75000000E-01
                       3.75000000E-01  5.00000000E-01  0.00000000E+00
                       5.00000000E-01  5.00000000E-01  1.25000000E-01
                      -3.75000000E-01  5.00000000E-01  2.50000000E-01
                      -2.50000000E-01  5.00000000E-01  3.75000000E-01
                      -1.25000000E-01  5.00000000E-01  5.00000000E-01
                       2.50000000E-01 -3.75000000E-01  0.00000000E+00
              kpt6    -1.25000000E-01 -2.50000000E-01  0.00000000E+00
                      -2.50000000E-01 -1.25000000E-01  0.00000000E+00
                      -1.25000000E-01 -1.25000000E-01  1.25000000E-01
                      -1.25000000E-01  5.00000000E-01  0.00000000E+00
                      -2.50000000E-01 -3.75000000E-01  0.00000000E+00
                      -1.25000000E-01 -3.75000000E-01  1.25000000E-01
                      -3.75000000E-01 -2.50000000E-01  0.00000000E+00
                      -2.50000000E-01 -2.50000000E-01  1.25000000E-01
                      -1.25000000E-01 -2.50000000E-01  2.50000000E-01
                       5.00000000E-01 -1.25000000E-01  0.00000000E+00
                      -3.75000000E-01 -1.25000000E-01  1.25000000E-01
                      -2.50000000E-01 -1.25000000E-01  2.50000000E-01
                      -1.25000000E-01 -1.25000000E-01  3.75000000E-01
                      -1.25000000E-01  2.50000000E-01  0.00000000E+00
                      -2.50000000E-01  3.75000000E-01  0.00000000E+00
                      -1.25000000E-01  3.75000000E-01  1.25000000E-01
                      -3.75000000E-01  5.00000000E-01  0.00000000E+00
                      -2.50000000E-01  5.00000000E-01  1.25000000E-01
                      -1.25000000E-01  5.00000000E-01  2.50000000E-01
                       5.00000000E-01 -3.75000000E-01  0.00000000E+00
                      -3.75000000E-01 -3.75000000E-01  1.25000000E-01
                      -2.50000000E-01 -3.75000000E-01  2.50000000E-01
                      -1.25000000E-01 -3.75000000E-01  3.75000000E-01
                       3.75000000E-01 -2.50000000E-01  0.00000000E+00
                       5.00000000E-01 -2.50000000E-01  1.25000000E-01
                      -3.75000000E-01 -2.50000000E-01  2.50000000E-01
                      -2.50000000E-01 -2.50000000E-01  3.75000000E-01
                      -1.25000000E-01 -2.50000000E-01  5.00000000E-01
                       2.50000000E-01 -1.25000000E-01  0.00000000E+00
                       3.75000000E-01 -1.25000000E-01  1.25000000E-01
                       5.00000000E-01 -1.25000000E-01  2.50000000E-01
                      -3.75000000E-01 -1.25000000E-01  3.75000000E-01
                      -2.50000000E-01 -1.25000000E-01  5.00000000E-01
                      -1.25000000E-01 -1.25000000E-01 -3.75000000E-01
                      -1.25000000E-01  0.00000000E+00  0.00000000E+00
                      -2.50000000E-01  1.25000000E-01  0.00000000E+00
                      -1.25000000E-01  1.25000000E-01  1.25000000E-01
                      -3.75000000E-01  2.50000000E-01  0.00000000E+00
                      -2.50000000E-01  2.50000000E-01  1.25000000E-01
                      -1.25000000E-01  2.50000000E-01  2.50000000E-01
                       5.00000000E-01  3.75000000E-01  0.00000000E+00
                      -3.75000000E-01  3.75000000E-01  1.25000000E-01
                      -2.50000000E-01  3.75000000E-01  2.50000000E-01
                      -1.25000000E-01  3.75000000E-01  3.75000000E-01
                       3.75000000E-01  5.00000000E-01  0.00000000E+00
                       5.00000000E-01  5.00000000E-01  1.25000000E-01
                      -3.75000000E-01  5.00000000E-01  2.50000000E-01
                      -2.50000000E-01  5.00000000E-01  3.75000000E-01
                      -1.25000000E-01  5.00000000E-01  5.00000000E-01
                       2.50000000E-01 -3.75000000E-01  0.00000000E+00
              kpt7    -1.25000000E-01 -2.50000000E-01  0.00000000E+00
                      -2.50000000E-01 -1.25000000E-01  0.00000000E+00
                      -1.25000000E-01 -1.25000000E-01  1.25000000E-01
                      -1.25000000E-01  5.00000000E-01  0.00000000E+00
                      -2.50000000E-01 -3.75000000E-01  0.00000000E+00
                      -1.25000000E-01 -3.75000000E-01  1.25000000E-01
                      -3.75000000E-01 -2.50000000E-01  0.00000000E+00
                      -2.50000000E-01 -2.50000000E-01  1.25000000E-01
                      -1.25000000E-01 -2.50000000E-01  2.50000000E-01
                       5.00000000E-01 -1.25000000E-01  0.00000000E+00
                      -3.75000000E-01 -1.25000000E-01  1.25000000E-01
                      -2.50000000E-01 -1.25000000E-01  2.50000000E-01
                      -1.25000000E-01 -1.25000000E-01  3.75000000E-01
                      -1.25000000E-01  2.50000000E-01  0.00000000E+00
                      -2.50000000E-01  3.75000000E-01  0.00000000E+00
                      -1.25000000E-01  3.75000000E-01  1.25000000E-01
                      -3.75000000E-01  5.00000000E-01  0.00000000E+00
                      -2.50000000E-01  5.00000000E-01  1.25000000E-01
                      -1.25000000E-01  5.00000000E-01  2.50000000E-01
                       5.00000000E-01 -3.75000000E-01  0.00000000E+00
                      -3.75000000E-01 -3.75000000E-01  1.25000000E-01
                      -2.50000000E-01 -3.75000000E-01  2.50000000E-01
                      -1.25000000E-01 -3.75000000E-01  3.75000000E-01
                       3.75000000E-01 -2.50000000E-01  0.00000000E+00
                       5.00000000E-01 -2.50000000E-01  1.25000000E-01
                      -3.75000000E-01 -2.50000000E-01  2.50000000E-01
                      -2.50000000E-01 -2.50000000E-01  3.75000000E-01
                      -1.25000000E-01 -2.50000000E-01  5.00000000E-01
                       2.50000000E-01 -1.25000000E-01  0.00000000E+00
                       3.75000000E-01 -1.25000000E-01  1.25000000E-01
                       5.00000000E-01 -1.25000000E-01  2.50000000E-01
                      -3.75000000E-01 -1.25000000E-01  3.75000000E-01
                      -2.50000000E-01 -1.25000000E-01  5.00000000E-01
                      -1.25000000E-01 -1.25000000E-01 -3.75000000E-01
                      -1.25000000E-01  0.00000000E+00  0.00000000E+00
                      -2.50000000E-01  1.25000000E-01  0.00000000E+00
                      -1.25000000E-01  1.25000000E-01  1.25000000E-01
                      -3.75000000E-01  2.50000000E-01  0.00000000E+00
                      -2.50000000E-01  2.50000000E-01  1.25000000E-01
                      -1.25000000E-01  2.50000000E-01  2.50000000E-01
                       5.00000000E-01  3.75000000E-01  0.00000000E+00
                      -3.75000000E-01  3.75000000E-01  1.25000000E-01
                      -2.50000000E-01  3.75000000E-01  2.50000000E-01
                      -1.25000000E-01  3.75000000E-01  3.75000000E-01
                       3.75000000E-01  5.00000000E-01  0.00000000E+00
                       5.00000000E-01  5.00000000E-01  1.25000000E-01
                      -3.75000000E-01  5.00000000E-01  2.50000000E-01
                      -2.50000000E-01  5.00000000E-01  3.75000000E-01
                      -1.25000000E-01  5.00000000E-01  5.00000000E-01
                       2.50000000E-01 -3.75000000E-01  0.00000000E+00
              kpt8    -1.25000000E-01 -2.50000000E-01  0.00000000E+00
                      -2.50000000E-01 -1.25000000E-01  0.00000000E+00
                      -1.25000000E-01 -1.25000000E-01  1.25000000E-01
                      -1.25000000E-01  5.00000000E-01  0.00000000E+00
                      -2.50000000E-01 -3.75000000E-01  0.00000000E+00
                      -1.25000000E-01 -3.75000000E-01  1.25000000E-01
                      -3.75000000E-01 -2.50000000E-01  0.00000000E+00
                      -2.50000000E-01 -2.50000000E-01  1.25000000E-01
                      -1.25000000E-01 -2.50000000E-01  2.50000000E-01
                       5.00000000E-01 -1.25000000E-01  0.00000000E+00
                      -3.75000000E-01 -1.25000000E-01  1.25000000E-01
                      -2.50000000E-01 -1.25000000E-01  2.50000000E-01
                      -1.25000000E-01 -1.25000000E-01  3.75000000E-01
                      -1.25000000E-01  2.50000000E-01  0.00000000E+00
                      -2.50000000E-01  3.75000000E-01  0.00000000E+00
                      -1.25000000E-01  3.75000000E-01  1.25000000E-01
                      -3.75000000E-01  5.00000000E-01  0.00000000E+00
                      -2.50000000E-01  5.00000000E-01  1.25000000E-01
                      -1.25000000E-01  5.00000000E-01  2.50000000E-01
                       5.00000000E-01 -3.75000000E-01  0.00000000E+00
                      -3.75000000E-01 -3.75000000E-01  1.25000000E-01
                      -2.50000000E-01 -3.75000000E-01  2.50000000E-01
                      -1.25000000E-01 -3.75000000E-01  3.75000000E-01
                       3.75000000E-01 -2.50000000E-01  0.00000000E+00
                       5.00000000E-01 -2.50000000E-01  1.25000000E-01
                      -3.75000000E-01 -2.50000000E-01  2.50000000E-01
                      -2.50000000E-01 -2.50000000E-01  3.75000000E-01
                      -1.25000000E-01 -2.50000000E-01  5.00000000E-01
                       2.50000000E-01 -1.25000000E-01  0.00000000E+00
                       3.75000000E-01 -1.25000000E-01  1.25000000E-01
                       5.00000000E-01 -1.25000000E-01  2.50000000E-01
                      -3.75000000E-01 -1.25000000E-01  3.75000000E-01
                      -2.50000000E-01 -1.25000000E-01  5.00000000E-01
                      -1.25000000E-01 -1.25000000E-01 -3.75000000E-01
                      -1.25000000E-01  0.00000000E+00  0.00000000E+00
                      -2.50000000E-01  1.25000000E-01  0.00000000E+00
                      -1.25000000E-01  1.25000000E-01  1.25000000E-01
                      -3.75000000E-01  2.50000000E-01  0.00000000E+00
                      -2.50000000E-01  2.50000000E-01  1.25000000E-01
                      -1.25000000E-01  2.50000000E-01  2.50000000E-01
                       5.00000000E-01  3.75000000E-01  0.00000000E+00
                      -3.75000000E-01  3.75000000E-01  1.25000000E-01
                      -2.50000000E-01  3.75000000E-01  2.50000000E-01
                      -1.25000000E-01  3.75000000E-01  3.75000000E-01
                       3.75000000E-01  5.00000000E-01  0.00000000E+00
                       5.00000000E-01  5.00000000E-01  1.25000000E-01
                      -3.75000000E-01  5.00000000E-01  2.50000000E-01
                      -2.50000000E-01  5.00000000E-01  3.75000000E-01
                      -1.25000000E-01  5.00000000E-01  5.00000000E-01
                       2.50000000E-01 -3.75000000E-01  0.00000000E+00
              kpt9    -1.25000000E-01 -2.50000000E-01  0.00000000E+00
                      -2.50000000E-01 -1.25000000E-01  0.00000000E+00
                      -1.25000000E-01 -1.25000000E-01  1.25000000E-01
                      -1.25000000E-01  5.00000000E-01  0.00000000E+00
                      -2.50000000E-01 -3.75000000E-01  0.00000000E+00
                      -1.25000000E-01 -3.75000000E-01  1.25000000E-01
                      -3.75000000E-01 -2.50000000E-01  0.00000000E+00
                      -2.50000000E-01 -2.50000000E-01  1.25000000E-01
                      -1.25000000E-01 -2.50000000E-01  2.50000000E-01
                       5.00000000E-01 -1.25000000E-01  0.00000000E+00
                      -3.75000000E-01 -1.25000000E-01  1.25000000E-01
                      -2.50000000E-01 -1.25000000E-01  2.50000000E-01
                      -1.25000000E-01 -1.25000000E-01  3.75000000E-01
                      -1.25000000E-01  2.50000000E-01  0.00000000E+00
                      -2.50000000E-01  3.75000000E-01  0.00000000E+00
                      -1.25000000E-01  3.75000000E-01  1.25000000E-01
                      -3.75000000E-01  5.00000000E-01  0.00000000E+00
                      -2.50000000E-01  5.00000000E-01  1.25000000E-01
                      -1.25000000E-01  5.00000000E-01  2.50000000E-01
                       5.00000000E-01 -3.75000000E-01  0.00000000E+00
                      -3.75000000E-01 -3.75000000E-01  1.25000000E-01
                      -2.50000000E-01 -3.75000000E-01  2.50000000E-01
                      -1.25000000E-01 -3.75000000E-01  3.75000000E-01
                       3.75000000E-01 -2.50000000E-01  0.00000000E+00
                       5.00000000E-01 -2.50000000E-01  1.25000000E-01
                      -3.75000000E-01 -2.50000000E-01  2.50000000E-01
                      -2.50000000E-01 -2.50000000E-01  3.75000000E-01
                      -1.25000000E-01 -2.50000000E-01  5.00000000E-01
                       2.50000000E-01 -1.25000000E-01  0.00000000E+00
                       3.75000000E-01 -1.25000000E-01  1.25000000E-01
                       5.00000000E-01 -1.25000000E-01  2.50000000E-01
                      -3.75000000E-01 -1.25000000E-01  3.75000000E-01
                      -2.50000000E-01 -1.25000000E-01  5.00000000E-01
                      -1.25000000E-01 -1.25000000E-01 -3.75000000E-01
                      -1.25000000E-01  0.00000000E+00  0.00000000E+00
                      -2.50000000E-01  1.25000000E-01  0.00000000E+00
                      -1.25000000E-01  1.25000000E-01  1.25000000E-01
                      -3.75000000E-01  2.50000000E-01  0.00000000E+00
                      -2.50000000E-01  2.50000000E-01  1.25000000E-01
                      -1.25000000E-01  2.50000000E-01  2.50000000E-01
                       5.00000000E-01  3.75000000E-01  0.00000000E+00
                      -3.75000000E-01  3.75000000E-01  1.25000000E-01
                      -2.50000000E-01  3.75000000E-01  2.50000000E-01
                      -1.25000000E-01  3.75000000E-01  3.75000000E-01
                       3.75000000E-01  5.00000000E-01  0.00000000E+00
                       5.00000000E-01  5.00000000E-01  1.25000000E-01
                      -3.75000000E-01  5.00000000E-01  2.50000000E-01
                      -2.50000000E-01  5.00000000E-01  3.75000000E-01
                      -1.25000000E-01  5.00000000E-01  5.00000000E-01
                       2.50000000E-01 -3.75000000E-01  0.00000000E+00
              kpt10   -1.25000000E-01 -2.50000000E-01  0.00000000E+00
                      -2.50000000E-01 -1.25000000E-01  0.00000000E+00
                      -1.25000000E-01 -1.25000000E-01  1.25000000E-01
                      -1.25000000E-01  5.00000000E-01  0.00000000E+00
                      -2.50000000E-01 -3.75000000E-01  0.00000000E+00
                      -1.25000000E-01 -3.75000000E-01  1.25000000E-01
                      -3.75000000E-01 -2.50000000E-01  0.00000000E+00
                      -2.50000000E-01 -2.50000000E-01  1.25000000E-01
                      -1.25000000E-01 -2.50000000E-01  2.50000000E-01
                       5.00000000E-01 -1.25000000E-01  0.00000000E+00
                      -3.75000000E-01 -1.25000000E-01  1.25000000E-01
                      -2.50000000E-01 -1.25000000E-01  2.50000000E-01
                      -1.25000000E-01 -1.25000000E-01  3.75000000E-01
                      -1.25000000E-01  2.50000000E-01  0.00000000E+00
                      -2.50000000E-01  3.75000000E-01  0.00000000E+00
                      -1.25000000E-01  3.75000000E-01  1.25000000E-01
                      -3.75000000E-01  5.00000000E-01  0.00000000E+00
                      -2.50000000E-01  5.00000000E-01  1.25000000E-01
                      -1.25000000E-01  5.00000000E-01  2.50000000E-01
                       5.00000000E-01 -3.75000000E-01  0.00000000E+00
                      -3.75000000E-01 -3.75000000E-01  1.25000000E-01
                      -2.50000000E-01 -3.75000000E-01  2.50000000E-01
                      -1.25000000E-01 -3.75000000E-01  3.75000000E-01
                       3.75000000E-01 -2.50000000E-01  0.00000000E+00
                       5.00000000E-01 -2.50000000E-01  1.25000000E-01
                      -3.75000000E-01 -2.50000000E-01  2.50000000E-01
                      -2.50000000E-01 -2.50000000E-01  3.75000000E-01
                      -1.25000000E-01 -2.50000000E-01  5.00000000E-01
                       2.50000000E-01 -1.25000000E-01  0.00000000E+00
                       3.75000000E-01 -1.25000000E-01  1.25000000E-01
                       5.00000000E-01 -1.25000000E-01  2.50000000E-01
                      -3.75000000E-01 -1.25000000E-01  3.75000000E-01
                      -2.50000000E-01 -1.25000000E-01  5.00000000E-01
                      -1.25000000E-01 -1.25000000E-01 -3.75000000E-01
                      -1.25000000E-01  0.00000000E+00  0.00000000E+00
                      -2.50000000E-01  1.25000000E-01  0.00000000E+00
                      -1.25000000E-01  1.25000000E-01  1.25000000E-01
                      -3.75000000E-01  2.50000000E-01  0.00000000E+00
                      -2.50000000E-01  2.50000000E-01  1.25000000E-01
                      -1.25000000E-01  2.50000000E-01  2.50000000E-01
                       5.00000000E-01  3.75000000E-01  0.00000000E+00
                      -3.75000000E-01  3.75000000E-01  1.25000000E-01
                      -2.50000000E-01  3.75000000E-01  2.50000000E-01
                      -1.25000000E-01  3.75000000E-01  3.75000000E-01
                       3.75000000E-01  5.00000000E-01  0.00000000E+00
                       5.00000000E-01  5.00000000E-01  1.25000000E-01
                      -3.75000000E-01  5.00000000E-01  2.50000000E-01
                      -2.50000000E-01  5.00000000E-01  3.75000000E-01
                      -1.25000000E-01  5.00000000E-01  5.00000000E-01
                       2.50000000E-01 -3.75000000E-01  0.00000000E+00
                       outvar_i_n : Printing only first  50 k-points.
           kptopt1          1
           kptopt2          2
           kptopt3          2
           kptopt4          3
           kptopt5          3
           kptopt6          3
           kptopt7          3
           kptopt8          3
           kptopt9          3
           kptopt10         3
         kptrlatt        4   -4    4     -4    4    4     -4   -4    4
          kptrlen      4.13383250E+01
P           mkmem1         10
P           mkmem2        128
P           mkmem3        128
P           mkmem4        256
P           mkmem5        256
P           mkmem6        256
P           mkmem7        256
P           mkmem8        256
P           mkmem9        256
P           mkmem10       256
P          mkqmem1         10
P          mkqmem2        128
P          mkqmem3        128
P          mkqmem4        256
P          mkqmem5        256
P          mkqmem6        256
P          mkqmem7        256
P          mkqmem8        256
P          mkqmem9        256
P          mkqmem10       256
P          mk1mem1         10
P          mk1mem2        128
P          mk1mem3        128
P          mk1mem4        256
P          mk1mem5        256
P          mk1mem6        256
P          mk1mem7        256
P          mk1mem8        256
P          mk1mem9        256
P          mk1mem10       256
            natom           2
            nband1          4
            nband2          4
            nband3          4
            nband4          4
            nband5          4
            nband6          4
            nband7          4
            nband8          4
            nband9          4
            nband10         4
           ndtset          10
            ngfft          30      30      30
             nkpt1         10
             nkpt2        128
             nkpt3        128
             nkpt4        256
             nkpt5        256
             nkpt6        256
             nkpt7        256
             nkpt8        256
             nkpt9        256
             nkpt10       256
             nqpt1          0
             nqpt2          1
             nqpt3          1
             nqpt4          1
             nqpt5          1
             nqpt6          1
             nqpt7          1
             nqpt8          1
             nqpt9          1
             nqpt10         1
            nstep          40
             nsym          48
           ntypat           1
              occ1     2.000000  2.000000  2.000000  2.000000
              occ2     2.000000  2.000000  2.000000  2.000000
              occ3     2.000000  2.000000  2.000000  2.000000
              occ4     2.000000  2.000000  2.000000  2.000000
              occ5     2.000000  2.000000  2.000000  2.000000
              occ6     2.000000  2.000000  2.000000  2.000000
              occ7     2.000000  2.000000  2.000000  2.000000
              occ8     2.000000  2.000000  2.000000  2.000000
              occ9     2.000000  2.000000  2.000000  2.000000
              occ10    2.000000  2.000000  2.000000  2.000000
        optdriver1          0
        optdriver2          1
        optdriver3          1
        optdriver4          1
        optdriver5          1
        optdriver6          1
        optdriver7          1
        optdriver8          1
        optdriver9          1
        optdriver10         1
              qpt1     0.00000000E+00  0.00000000E+00  0.00000000E+00
              qpt2     0.00000000E+00  0.00000000E+00  0.00000000E+00
              qpt3     0.00000000E+00  0.00000000E+00  0.00000000E+00
              qpt4     2.50000000E-01  0.00000000E+00  0.00000000E+00
              qpt5     5.00000000E-01  0.00000000E+00  0.00000000E+00
              qpt6     2.50000000E-01  2.50000000E-01  0.00000000E+00
              qpt7     5.00000000E-01  2.50000000E-01  0.00000000E+00
              qpt8    -2.50000000E-01  2.50000000E-01  0.00000000E+00
              qpt9     5.00000000E-01  5.00000000E-01  0.00000000E+00
              qpt10   -2.50000000E-01  5.00000000E-01  2.50000000E-01
          rfatpol           1       2
            rfdir           1       1       1
           rfelfd1          0
           rfelfd2          2
           rfelfd3          3
           rfelfd4          0
           rfelfd5          0
           rfelfd6          0
           rfelfd7          0
           rfelfd8          0
           rfelfd9          0
           rfelfd10         0
           rfphon1          0
           rfphon2          0
           rfphon3          1
           rfphon4          1
           rfphon5          1
           rfphon6          1
           rfphon7          1
           rfphon8          1
           rfphon9          1
           rfphon10         1
            rprim      7.0710678127E-01  7.0710678110E-01 -5.1354079751E-11
                       0.0000000000E+00  7.0710678119E-01  7.0710678119E-01
                       7.0710678127E-01 -5.1354065771E-11  7.0710678110E-01
           shiftk      5.00000000E-01  5.00000000E-01  5.00000000E-01
          spgroup         227
           symrel      1  0  0   0  1  0   0  0  1      -1  0  0   0 -1  0   0  0 -1
                       0 -1  1   0 -1  0   1 -1  0       0  1 -1   0  1  0  -1  1  0
                      -1  0  0  -1  0  1  -1  1  0       1  0  0   1  0 -1   1 -1  0
                       0  1 -1   1  0 -1   0  0 -1       0 -1  1  -1  0  1   0  0  1
                      -1  0  0  -1  1  0  -1  0  1       1  0  0   1 -1  0   1  0 -1
                       0 -1  1   1 -1  0   0 -1  0       0  1 -1  -1  1  0   0  1  0
                       1  0  0   0  0  1   0  1  0      -1  0  0   0  0 -1   0 -1  0
                       0  1 -1   0  0 -1   1  0 -1       0 -1  1   0  0  1  -1  0  1
                      -1  0  1  -1  1  0  -1  0  0       1  0 -1   1 -1  0   1  0  0
                       0 -1  0   1 -1  0   0 -1  1       0  1  0  -1  1  0   0  1 -1
                       1  0 -1   0  0 -1   0  1 -1      -1  0  1   0  0  1   0 -1  1
                       0  1  0   0  0  1   1  0  0       0 -1  0   0  0 -1  -1  0  0
                       1  0 -1   0  1 -1   0  0 -1      -1  0  1   0 -1  1   0  0  1
                       0 -1  0   0 -1  1   1 -1  0       0  1  0   0  1 -1  -1  1  0
                      -1  0  1  -1  0  0  -1  1  0       1  0 -1   1  0  0   1 -1  0
                       0  1  0   1  0  0   0  0  1       0 -1  0  -1  0  0   0  0 -1
                       0  0 -1   0  1 -1   1  0 -1       0  0  1   0 -1  1  -1  0  1
                       1 -1  0   0 -1  1   0 -1  0      -1  1  0   0  1 -1   0  1  0
                       0  0  1   1  0  0   0  1  0       0  0 -1  -1  0  0   0 -1  0
                      -1  1  0  -1  0  0  -1  0  1       1 -1  0   1  0  0   1  0 -1
                       0  0  1   0  1  0   1  0  0       0  0 -1   0 -1  0  -1  0  0
                       1 -1  0   0 -1  0   0 -1  1      -1  1  0   0  1  0   0  1 -1
                       0  0 -1   1  0 -1   0  1 -1       0  0  1  -1  0  1   0 -1  1
                      -1  1  0  -1  0  1  -1  0  0       1 -1  0   1  0 -1   1  0  0
            tnons      0.0000000  0.0000000  0.0000000     0.2400000  0.2600000  0.2400000
                       0.0000000 -0.0000000 -0.0000000     0.2400000  0.2600000  0.2400000
                      -0.0100000  0.0100000 -0.0100000     0.2500000  0.2500000  0.2500000
                      -0.0100000  0.0100000 -0.0100000     0.2500000  0.2500000  0.2500000
                      -0.0100000  0.0000000  0.0000000     0.2500000  0.2600000  0.2400000
                      -0.0100000 -0.0000000 -0.0000000     0.2500000  0.2600000  0.2400000
                       0.0000000  0.0100000 -0.0100000     0.2400000  0.2500000  0.2500000
                       0.0000000  0.0100000 -0.0100000     0.2400000  0.2500000  0.2500000
                      -0.0100000  0.0000000 -0.0000000     0.2500000  0.2600000  0.2400000
                      -0.0100000 -0.0000000  0.0000000     0.2500000  0.2600000  0.2400000
                       0.0000000  0.0100000 -0.0100000     0.2400000  0.2500000  0.2500000
                       0.0000000  0.0100000 -0.0100000     0.2400000  0.2500000  0.2500000
                       0.0000000  0.0000000 -0.0100000     0.2400000  0.2600000  0.2500000
                       0.0000000 -0.0000000 -0.0100000     0.2400000  0.2600000  0.2500000
                      -0.0100000  0.0100000 -0.0000000     0.2500000  0.2500000  0.2400000
                      -0.0100000  0.0100000  0.0000000     0.2500000  0.2500000  0.2400000
                       0.0000000  0.0000000 -0.0100000     0.2400000  0.2600000  0.2500000
                       0.0000000 -0.0000000 -0.0100000     0.2400000  0.2600000  0.2500000
                      -0.0100000  0.0100000 -0.0000000     0.2500000  0.2500000  0.2400000
                      -0.0100000  0.0100000  0.0000000     0.2500000  0.2500000  0.2400000
                       0.0000000  0.0000000 -0.0000000     0.2400000  0.2600000  0.2400000
                       0.0000000 -0.0000000  0.0000000     0.2400000  0.2600000  0.2400000
                      -0.0100000  0.0100000 -0.0100000     0.2500000  0.2500000  0.2500000
                      -0.0100000  0.0100000 -0.0100000     0.2500000  0.2500000  0.2500000
           tolvrs1     1.00000000E-10
           tolvrs2     0.00000000E+00
           tolvrs3     1.00000000E-08
           tolvrs4     1.00000000E-08
           tolvrs5     1.00000000E-08
           tolvrs6     1.00000000E-08
           tolvrs7     1.00000000E-08
           tolvrs8     1.00000000E-08
           tolvrs9     1.00000000E-08
           tolvrs10    1.00000000E-08
           tolwfr1     0.00000000E+00
           tolwfr2     1.00000000E-20
           tolwfr3     0.00000000E+00
           tolwfr4     0.00000000E+00
           tolwfr5     0.00000000E+00
           tolwfr6     0.00000000E+00
           tolwfr7     0.00000000E+00
           tolwfr8     0.00000000E+00
           tolwfr9     0.00000000E+00
           tolwfr10    0.00000000E+00
            typat      1  1
              wtk1       0.09375    0.09375    0.09375    0.18750    0.09375    0.09375
                         0.09375    0.18750    0.03125    0.03125
              wtk2       0.00781    0.00781    0.00781    0.00781    0.00781    0.00781
                         0.00781    0.00781    0.00781    0.00781    0.00781    0.00781
                         0.00781    0.00781    0.00781    0.00781    0.00781    0.00781
                         0.00781    0.00781    0.00781    0.00781    0.00781    0.00781
                         0.00781    0.00781    0.00781    0.00781    0.00781    0.00781
                         0.00781    0.00781    0.00781    0.00781    0.00781    0.00781
                         0.00781    0.00781    0.00781    0.00781    0.00781    0.00781
                         0.00781    0.00781    0.00781    0.00781    0.00781    0.00781
                         0.00781    0.00781
              wtk3       0.00781    0.00781    0.00781    0.00781    0.00781    0.00781
                         0.00781    0.00781    0.00781    0.00781    0.00781    0.00781
                         0.00781    0.00781    0.00781    0.00781    0.00781    0.00781
                         0.00781    0.00781    0.00781    0.00781    0.00781    0.00781
                         0.00781    0.00781    0.00781    0.00781    0.00781    0.00781
                         0.00781    0.00781    0.00781    0.00781    0.00781    0.00781
                         0.00781    0.00781    0.00781    0.00781    0.00781    0.00781
                         0.00781    0.00781    0.00781    0.00781    0.00781    0.00781
                         0.00781    0.00781
              wtk4       0.00391    0.00391    0.00391    0.00391    0.00391    0.00391
                         0.00391    0.00391    0.00391    0.00391    0.00391    0.00391
                         0.00391    0.00391    0.00391    0.00391    0.00391    0.00391
                         0.00391    0.00391    0.00391    0.00391    0.00391    0.00391
                         0.00391    0.00391    0.00391    0.00391    0.00391    0.00391
                         0.00391    0.00391    0.00391    0.00391    0.00391    0.00391
                         0.00391    0.00391    0.00391    0.00391    0.00391    0.00391
                         0.00391    0.00391    0.00391    0.00391    0.00391    0.00391
                         0.00391    0.00391
              wtk5       0.00391    0.00391    0.00391    0.00391    0.00391    0.00391
                         0.00391    0.00391    0.00391    0.00391    0.00391    0.00391
                         0.00391    0.00391    0.00391    0.00391    0.00391    0.00391
                         0.00391    0.00391    0.00391    0.00391    0.00391    0.00391
                         0.00391    0.00391    0.00391    0.00391    0.00391    0.00391
                         0.00391    0.00391    0.00391    0.00391    0.00391    0.00391
                         0.00391    0.00391    0.00391    0.00391    0.00391    0.00391
                         0.00391    0.00391    0.00391    0.00391    0.00391    0.00391
                         0.00391    0.00391
              wtk6       0.00391    0.00391    0.00391    0.00391    0.00391    0.00391
                         0.00391    0.00391    0.00391    0.00391    0.00391    0.00391
                         0.00391    0.00391    0.00391    0.00391    0.00391    0.00391
                         0.00391    0.00391    0.00391    0.00391    0.00391    0.00391
                         0.00391    0.00391    0.00391    0.00391    0.00391    0.00391
                         0.00391    0.00391    0.00391    0.00391    0.00391    0.00391
                         0.00391    0.00391    0.00391    0.00391    0.00391    0.00391
                         0.00391    0.00391    0.00391    0.00391    0.00391    0.00391
                         0.00391    0.00391
              wtk7       0.00391    0.00391    0.00391    0.00391    0.00391    0.00391
                         0.00391    0.00391    0.00391    0.00391    0.00391    0.00391
                         0.00391    0.00391    0.00391    0.00391    0.00391    0.00391
                         0.00391    0.00391    0.00391    0.00391    0.00391    0.00391
                         0.00391    0.00391    0.00391    0.00391    0.00391    0.00391
                         0.00391    0.00391    0.00391    0.00391    0.00391    0.00391
                         0.00391    0.00391    0.00391    0.00391    0.00391    0.00391
                         0.00391    0.00391    0.00391    0.00391    0.00391    0.00391
                         0.00391    0.00391
              wtk8       0.00391    0.00391    0.00391    0.00391    0.00391    0.00391
                         0.00391    0.00391    0.00391    0.00391    0.00391    0.00391
                         0.00391    0.00391    0.00391    0.00391    0.00391    0.00391
                         0.00391    0.00391    0.00391    0.00391    0.00391    0.00391
                         0.00391    0.00391    0.00391    0.00391    0.00391    0.00391
                         0.00391    0.00391    0.00391    0.00391    0.00391    0.00391
                         0.00391    0.00391    0.00391    0.00391    0.00391    0.00391
                         0.00391    0.00391    0.00391    0.00391    0.00391    0.00391
                         0.00391    0.00391
              wtk9       0.00391    0.00391    0.00391    0.00391    0.00391    0.00391
                         0.00391    0.00391    0.00391    0.00391    0.00391    0.00391
                         0.00391    0.00391    0.00391    0.00391    0.00391    0.00391
                         0.00391    0.00391    0.00391    0.00391    0.00391    0.00391
                         0.00391    0.00391    0.00391    0.00391    0.00391    0.00391
                         0.00391    0.00391    0.00391    0.00391    0.00391    0.00391
                         0.00391    0.00391    0.00391    0.00391    0.00391    0.00391
                         0.00391    0.00391    0.00391    0.00391    0.00391    0.00391
                         0.00391    0.00391
              wtk10      0.00391    0.00391    0.00391    0.00391    0.00391    0.00391
                         0.00391    0.00391    0.00391    0.00391    0.00391    0.00391
                         0.00391    0.00391    0.00391    0.00391    0.00391    0.00391
                         0.00391    0.00391    0.00391    0.00391    0.00391    0.00391
                         0.00391    0.00391    0.00391    0.00391    0.00391    0.00391
                         0.00391    0.00391    0.00391    0.00391    0.00391    0.00391
                         0.00391    0.00391    0.00391    0.00391    0.00391    0.00391
                         0.00391    0.00391    0.00391    0.00391    0.00391    0.00391
                         0.00391    0.00391
                       outvars : Printing only first  50 k-points.
           xangst     -2.7344124370E-02  1.1381456510E-13  1.1381068019E-13
                       1.3398620891E+00  1.3672062128E+00  1.3672062128E+00
            xcart     -5.1672906403E-02  2.1507835797E-13  2.1507101655E-13
                       2.5319724042E+00  2.5836453094E+00  2.5836453094E+00
             xred     -5.0000000192E-03  5.0000000192E-03 -5.0000000192E-03
                       2.4500000002E-01  2.5499999998E-01  2.4500000002E-01
            znucl       14.00000
 
================================================================================
 
 chkinp: Checking input parameters for consistency, jdtset=   1.
 
 chkinp: WARNING -
   Chksymbreak=1 . Found potentially symmetry-breaking value of tnons, 
   which is neither a rational fraction in 1/8th nor in 1/12th :
   for the symmetry number    2
   symrel is  -1  0  0  0 -1  0  0  0 -1
   tnons is     2.400000E-01    2.600000E-01    2.400000E-01
   Please, read the description of the input variable chksymbreak,
   then, if you feel confident, you might switch it to zero, or consult with the forum.
 
 chkinp: WARNING -
   Chksymbreak=1 . Found potentially symmetry-breaking value of tnons, 
   which is neither a rational fraction in 1/8th nor in 1/12th :
   for the symmetry number    2
   symrel is  -1  0  0  0 -1  0  0  0 -1
   tnons is     2.400000E-01    2.600000E-01    2.400000E-01
   Please, read the description of the input variable chksymbreak,
   then, if you feel confident, you might switch it to zero, or consult with the forum.
 
 chkinp: WARNING -
   Chksymbreak=1 . Found potentially symmetry-breaking value of tnons, 
   which is neither a rational fraction in 1/8th nor in 1/12th :
   for the symmetry number    2
   symrel is  -1  0  0  0 -1  0  0  0 -1
   tnons is     2.400000E-01    2.600000E-01    2.400000E-01
   Please, read the description of the input variable chksymbreak,
   then, if you feel confident, you might switch it to zero, or consult with the forum.
 
 chkinp: WARNING -
   Chksymbreak=1 . Found potentially symmetry-breaking value of tnons, 
   which is neither a rational fraction in 1/8th nor in 1/12th :
   for the symmetry number    4
   symrel is   0  1 -1  0  1  0 -1  1  0
   tnons is     2.400000E-01    2.600000E-01    2.400000E-01
   Please, read the description of the input variable chksymbreak,
   then, if you feel confident, you might switch it to zero, or consult with the forum.
 
 chkinp: WARNING -
   Chksymbreak=1 . Found potentially symmetry-breaking value of tnons, 
   which is neither a rational fraction in 1/8th nor in 1/12th :
   for the symmetry number    4
   symrel is   0  1 -1  0  1  0 -1  1  0
   tnons is     2.400000E-01    2.600000E-01    2.400000E-01
   Please, read the description of the input variable chksymbreak,
   then, if you feel confident, you might switch it to zero, or consult with the forum.
 
 chkinp: WARNING -
   Chksymbreak=1 . Found potentially symmetry-breaking value of tnons, 
   which is neither a rational fraction in 1/8th nor in 1/12th :
   for the symmetry number    4
   symrel is   0  1 -1  0  1  0 -1  1  0
   tnons is     2.400000E-01    2.600000E-01    2.400000E-01
   Please, read the description of the input variable chksymbreak,
   then, if you feel confident, you might switch it to zero, or consult with the forum.
 
 chkinp: WARNING -
   Chksymbreak=1 . Found potentially symmetry-breaking value of tnons, 
   which is neither a rational fraction in 1/8th nor in 1/12th :
   for the symmetry number    5
   symrel is  -1  0  0 -1  0  1 -1  1  0
   tnons is    -1.000000E-02    1.000000E-02   -1.000000E-02
   Please, read the description of the input variable chksymbreak,
   then, if you feel confident, you might switch it to zero, or consult with the forum.
 
 chkinp: WARNING -
   Chksymbreak=1 . Found potentially symmetry-breaking value of tnons, 
   which is neither a rational fraction in 1/8th nor in 1/12th :
   for the symmetry number    5
   symrel is  -1  0  0 -1  0  1 -1  1  0
   tnons is    -1.000000E-02    1.000000E-02   -1.000000E-02
   Please, read the description of the input variable chksymbreak,
   then, if you feel confident, you might switch it to zero, or consult with the forum.
 
 chkinp: WARNING -
   Chksymbreak=1 . Found potentially symmetry-breaking value of tnons, 
   which is neither a rational fraction in 1/8th nor in 1/12th :
   for the symmetry number    5
   symrel is  -1  0  0 -1  0  1 -1  1  0
   tnons is    -1.000000E-02    1.000000E-02   -1.000000E-02
   Please, read the description of the input variable chksymbreak,
   then, if you feel confident, you might switch it to zero, or consult with the forum.
 
 chkinp: WARNING -
   Chksymbreak=1 . Found potentially symmetry-breaking value of tnons, 
   which is neither a rational fraction in 1/8th nor in 1/12th :
   for the symmetry number    7
   symrel is   0  1 -1  1  0 -1  0  0 -1
   tnons is    -1.000000E-02    1.000000E-02   -1.000000E-02
   Please, read the description of the input variable chksymbreak,
   then, if you feel confident, you might switch it to zero, or consult with the forum.
 
 chkinp: WARNING -
   Chksymbreak=1 . Found potentially symmetry-breaking value of tnons, 
   which is neither a rational fraction in 1/8th nor in 1/12th :
   for the symmetry number    7
   symrel is   0  1 -1  1  0 -1  0  0 -1
   tnons is    -1.000000E-02    1.000000E-02   -1.000000E-02
   Please, read the description of the input variable chksymbreak,
   then, if you feel confident, you might switch it to zero, or consult with the forum.
 
 chkinp: WARNING -
   Chksymbreak=1 . Found potentially symmetry-breaking value of tnons, 
   which is neither a rational fraction in 1/8th nor in 1/12th :
   for the symmetry number    7
   symrel is   0  1 -1  1  0 -1  0  0 -1
   tnons is    -1.000000E-02    1.000000E-02   -1.000000E-02
   Please, read the description of the input variable chksymbreak,
   then, if you feel confident, you might switch it to zero, or consult with the forum.
 
 chkinp: WARNING -
   Chksymbreak=1 . Found potentially symmetry-breaking value of tnons, 
   which is neither a rational fraction in 1/8th nor in 1/12th :
   for the symmetry number    9
   symrel is  -1  0  0 -1  1  0 -1  0  1
   tnons is    -1.000000E-02    0.000000E+00    0.000000E+00
   Please, read the description of the input variable chksymbreak,
   then, if you feel confident, you might switch it to zero, or consult with the forum.
 
 chkinp: WARNING -
   Chksymbreak=1 . Found potentially symmetry-breaking value of tnons, 
   which is neither a rational fraction in 1/8th nor in 1/12th :
   for the symmetry number   10
   symrel is   1  0  0  1 -1  0  1  0 -1
   tnons is     2.500000E-01    2.600000E-01    2.400000E-01
   Please, read the description of the input variable chksymbreak,
   then, if you feel confident, you might switch it to zero, or consult with the forum.
 
 chkinp: WARNING -
   Chksymbreak=1 . Found potentially symmetry-breaking value of tnons, 
   which is neither a rational fraction in 1/8th nor in 1/12th :
   for the symmetry number   10
   symrel is   1  0  0  1 -1  0  1  0 -1
   tnons is     2.500000E-01    2.600000E-01    2.400000E-01
   Please, read the description of the input variable chksymbreak,
   then, if you feel confident, you might switch it to zero, or consult with the forum.
 
 chkinp: WARNING -
   Chksymbreak=1 . Found potentially symmetry-breaking value of tnons, 
   which is neither a rational fraction in 1/8th nor in 1/12th :
   for the symmetry number   11
   symrel is   0 -1  1  1 -1  0  0 -1  0
   tnons is    -1.000000E-02   -2.602085E-18   -8.673617E-19
   Please, read the description of the input variable chksymbreak,
   then, if you feel confident, you might switch it to zero, or consult with the forum.
 
 chkinp: WARNING -
   Chksymbreak=1 . Found potentially symmetry-breaking value of tnons, 
   which is neither a rational fraction in 1/8th nor in 1/12th :
   for the symmetry number   12
   symrel is   0  1 -1 -1  1  0  0  1  0
   tnons is     2.500000E-01    2.600000E-01    2.400000E-01
   Please, read the description of the input variable chksymbreak,
   then, if you feel confident, you might switch it to zero, or consult with the forum.
 
 chkinp: WARNING -
   Chksymbreak=1 . Found potentially symmetry-breaking value of tnons, 
   which is neither a rational fraction in 1/8th nor in 1/12th :
   for the symmetry number   12
   symrel is   0  1 -1 -1  1  0  0  1  0
   tnons is     2.500000E-01    2.600000E-01    2.400000E-01
   Please, read the description of the input variable chksymbreak,
   then, if you feel confident, you might switch it to zero, or consult with the forum.
 
 chkinp: WARNING -
   Chksymbreak=1 . Found potentially symmetry-breaking value of tnons, 
   which is neither a rational fraction in 1/8th nor in 1/12th :
   for the symmetry number   13
   symrel is   1  0  0  0  0  1  0  1  0
   tnons is     0.000000E+00    1.000000E-02   -1.000000E-02
   Please, read the description of the input variable chksymbreak,
   then, if you feel confident, you might switch it to zero, or consult with the forum.
 
 chkinp: WARNING -
   Chksymbreak=1 . Found potentially symmetry-breaking value of tnons, 
   which is neither a rational fraction in 1/8th nor in 1/12th :
   for the symmetry number   13
   symrel is   1  0  0  0  0  1  0  1  0
   tnons is     0.000000E+00    1.000000E-02   -1.000000E-02
   Please, read the description of the input variable chksymbreak,
   then, if you feel confident, you might switch it to zero, or consult with the forum.
 
 chkinp: WARNING -
   Chksymbreak=1 . Found potentially symmetry-breaking value of tnons, 
   which is neither a rational fraction in 1/8th nor in 1/12th :
   for the symmetry number   14
   symrel is  -1  0  0  0  0 -1  0 -1  0
   tnons is     2.400000E-01    2.500000E-01    2.500000E-01
   Please, read the description of the input variable chksymbreak,
   then, if you feel confident, you might switch it to zero, or consult with the forum.
 
 chkinp: WARNING -
   Chksymbreak=1 . Found potentially symmetry-breaking value of tnons, 
   which is neither a rational fraction in 1/8th nor in 1/12th :
   for the symmetry number   15
   symrel is   0  1 -1  0  0 -1  1  0 -1
   tnons is     8.673617E-19    1.000000E-02   -1.000000E-02
   Please, read the description of the input variable chksymbreak,
   then, if you feel confident, you might switch it to zero, or consult with the forum.
 
 chkinp: WARNING -
   Chksymbreak=1 . Found potentially symmetry-breaking value of tnons, 
   which is neither a rational fraction in 1/8th nor in 1/12th :
   for the symmetry number   15
   symrel is   0  1 -1  0  0 -1  1  0 -1
   tnons is     8.673617E-19    1.000000E-02   -1.000000E-02
   Please, read the description of the input variable chksymbreak,
   then, if you feel confident, you might switch it to zero, or consult with the forum.
 
 chkinp: WARNING -
   Chksymbreak=1 . Found potentially symmetry-breaking value of tnons, 
   which is neither a rational fraction in 1/8th nor in 1/12th :
   for the symmetry number   16
   symrel is   0 -1  1  0  0  1 -1  0  1
   tnons is     2.400000E-01    2.500000E-01    2.500000E-01
   Please, read the description of the input variable chksymbreak,
   then, if you feel confident, you might switch it to zero, or consult with the forum.
 
 chkinp: WARNING -
   Chksymbreak=1 . Found potentially symmetry-breaking value of tnons, 
   which is neither a rational fraction in 1/8th nor in 1/12th :
   for the symmetry number   17
   symrel is  -1  0  1 -1  1  0 -1  0  0
   tnons is    -1.000000E-02    0.000000E+00   -8.673617E-19
   Please, read the description of the input variable chksymbreak,
   then, if you feel confident, you might switch it to zero, or consult with the forum.
 
 chkinp: WARNING -
   Chksymbreak=1 . Found potentially symmetry-breaking value of tnons, 
   which is neither a rational fraction in 1/8th nor in 1/12th :
   for the symmetry number   18
   symrel is   1  0 -1  1 -1  0  1  0  0
   tnons is     2.500000E-01    2.600000E-01    2.400000E-01
   Please, read the description of the input variable chksymbreak,
   then, if you feel confident, you might switch it to zero, or consult with the forum.
 
 chkinp: WARNING -
   Chksymbreak=1 . Found potentially symmetry-breaking value of tnons, 
   which is neither a rational fraction in 1/8th nor in 1/12th :
   for the symmetry number   18
   symrel is   1  0 -1  1 -1  0  1  0  0
   tnons is     2.500000E-01    2.600000E-01    2.400000E-01
   Please, read the description of the input variable chksymbreak,
   then, if you feel confident, you might switch it to zero, or consult with the forum.
 
 chkinp: WARNING -
   Chksymbreak=1 . Found potentially symmetry-breaking value of tnons, 
   which is neither a rational fraction in 1/8th nor in 1/12th :
   for the symmetry number   19
   symrel is   0 -1  0  1 -1  0  0 -1  1
   tnons is    -1.000000E-02   -2.602085E-18    0.000000E+00
   Please, read the description of the input variable chksymbreak,
   then, if you feel confident, you might switch it to zero, or consult with the forum.
 
 chkinp: WARNING -
   Chksymbreak=1 . Found potentially symmetry-breaking value of tnons, 
   which is neither a rational fraction in 1/8th nor in 1/12th :
   for the symmetry number   20
   symrel is   0  1  0 -1  1  0  0  1 -1
   tnons is     2.500000E-01    2.600000E-01    2.400000E-01
   Please, read the description of the input variable chksymbreak,
   then, if you feel confident, you might switch it to zero, or consult with the forum.
 
 chkinp: WARNING -
   Chksymbreak=1 . Found potentially symmetry-breaking value of tnons, 
   which is neither a rational fraction in 1/8th nor in 1/12th :
   for the symmetry number   20
   symrel is   0  1  0 -1  1  0  0  1 -1
   tnons is     2.500000E-01    2.600000E-01    2.400000E-01
   Please, read the description of the input variable chksymbreak,
   then, if you feel confident, you might switch it to zero, or consult with the forum.
 
 chkinp: WARNING -
   Chksymbreak=1 . Found potentially symmetry-breaking value of tnons, 
   which is neither a rational fraction in 1/8th nor in 1/12th :
   for the symmetry number   21
   symrel is   1  0 -1  0  0 -1  0  1 -1
   tnons is     0.000000E+00    1.000000E-02   -1.000000E-02
   Please, read the description of the input variable chksymbreak,
   then, if you feel confident, you might switch it to zero, or consult with the forum.
 
 chkinp: WARNING -
   Chksymbreak=1 . Found potentially symmetry-breaking value of tnons, 
   which is neither a rational fraction in 1/8th nor in 1/12th :
   for the symmetry number   21
   symrel is   1  0 -1  0  0 -1  0  1 -1
   tnons is     0.000000E+00    1.000000E-02   -1.000000E-02
   Please, read the description of the input variable chksymbreak,
   then, if you feel confident, you might switch it to zero, or consult with the forum.
 
 chkinp: WARNING -
   Chksymbreak=1 . Found potentially symmetry-breaking value of tnons, 
   which is neither a rational fraction in 1/8th nor in 1/12th :
   for the symmetry number   22
   symrel is  -1  0  1  0  0  1  0 -1  1
   tnons is     2.400000E-01    2.500000E-01    2.500000E-01
   Please, read the description of the input variable chksymbreak,
   then, if you feel confident, you might switch it to zero, or consult with the forum.
 
 chkinp: WARNING -
   Chksymbreak=1 . Found potentially symmetry-breaking value of tnons, 
   which is neither a rational fraction in 1/8th nor in 1/12th :
   for the symmetry number   23
   symrel is   0  1  0  0  0  1  1  0  0
   tnons is     8.673617E-19    1.000000E-02   -1.000000E-02
   Please, read the description of the input variable chksymbreak,
   then, if you feel confident, you might switch it to zero, or consult with the forum.
 
 chkinp: WARNING -
   Chksymbreak=1 . Found potentially symmetry-breaking value of tnons, 
   which is neither a rational fraction in 1/8th nor in 1/12th :
   for the symmetry number   23
   symrel is   0  1  0  0  0  1  1  0  0
   tnons is     8.673617E-19    1.000000E-02   -1.000000E-02
   Please, read the description of the input variable chksymbreak,
   then, if you feel confident, you might switch it to zero, or consult with the forum.
 
 chkinp: WARNING -
   Chksymbreak=1 . Found potentially symmetry-breaking value of tnons, 
[...]
 
 chkinp: WARNING -
   Chksymbreak=1 . Found potentially symmetry-breaking value of tnons, 
   which is neither a rational fraction in 1/8th nor in 1/12th :
   for the symmetry number   23
   symrel is   0  1  0  0  0  1  1  0  0
   tnons is     8.673617E-19    1.000000E-02   -1.000000E-02
   Please, read the description of the input variable chksymbreak,
   then, if you feel confident, you might switch it to zero, or consult with the forum.
 
 chkinp: WARNING -
   Chksymbreak=1 . Found potentially symmetry-breaking value of tnons, 
   which is neither a rational fraction in 1/8th nor in 1/12th :
   for the symmetry number   24
   symrel is   0 -1  0  0  0 -1 -1  0  0
   tnons is     2.400000E-01    2.500000E-01    2.500000E-01
   Please, read the description of the input variable chksymbreak,
   then, if you feel confident, you might switch it to zero, or consult with the forum.
 
 chkinp: WARNING -
   Chksymbreak=1 . Found potentially symmetry-breaking value of tnons, 
   which is neither a rational fraction in 1/8th nor in 1/12th :
   for the symmetry number   25
   symrel is   1  0 -1  0  1 -1  0  0 -1
   tnons is     0.000000E+00    0.000000E+00   -1.000000E-02
   Please, read the description of the input variable chksymbreak,
   then, if you feel confident, you might switch it to zero, or consult with the forum.
 
 chkinp: WARNING -
   Chksymbreak=1 . Found potentially symmetry-breaking value of tnons, 
   which is neither a rational fraction in 1/8th nor in 1/12th :
   for the symmetry number   26
   symrel is  -1  0  1  0 -1  1  0  0  1
   tnons is     2.400000E-01    2.600000E-01    2.500000E-01
   Please, read the description of the input variable chksymbreak,
   then, if you feel confident, you might switch it to zero, or consult with the forum.
 
 chkinp: WARNING -
   Chksymbreak=1 . Found potentially symmetry-breaking value of tnons, 
   which is neither a rational fraction in 1/8th nor in 1/12th :
   for the symmetry number   26
   symrel is  -1  0  1  0 -1  1  0  0  1
   tnons is     2.400000E-01    2.600000E-01    2.500000E-01
   Please, read the description of the input variable chksymbreak,
   then, if you feel confident, you might switch it to zero, or consult with the forum.
 
 chkinp: WARNING -
   Chksymbreak=1 . Found potentially symmetry-breaking value of tnons, 
   which is neither a rational fraction in 1/8th nor in 1/12th :
   for the symmetry number   27
   symrel is   0 -1  0  0 -1  1  1 -1  0
   tnons is     8.673617E-19   -2.602085E-18   -1.000000E-02
   Please, read the description of the input variable chksymbreak,
   then, if you feel confident, you might switch it to zero, or consult with the forum.
 
 chkinp: WARNING -
   Chksymbreak=1 . Found potentially symmetry-breaking value of tnons, 
   which is neither a rational fraction in 1/8th nor in 1/12th :
   for the symmetry number   28
   symrel is   0  1  0  0  1 -1 -1  1  0
   tnons is     2.400000E-01    2.600000E-01    2.500000E-01
   Please, read the description of the input variable chksymbreak,
   then, if you feel confident, you might switch it to zero, or consult with the forum.
 
 chkinp: WARNING -
   Chksymbreak=1 . Found potentially symmetry-breaking value of tnons, 
   which is neither a rational fraction in 1/8th nor in 1/12th :
   for the symmetry number   28
   symrel is   0  1  0  0  1 -1 -1  1  0
   tnons is     2.400000E-01    2.600000E-01    2.500000E-01
   Please, read the description of the input variable chksymbreak,
   then, if you feel confident, you might switch it to zero, or consult with the forum.
 
 chkinp: WARNING -
   Chksymbreak=1 . Found potentially symmetry-breaking value of tnons, 
   which is neither a rational fraction in 1/8th nor in 1/12th :
   for the symmetry number   29
   symrel is  -1  0  1 -1  0  0 -1  1  0
   tnons is    -1.000000E-02    1.000000E-02   -8.673617E-19
   Please, read the description of the input variable chksymbreak,
   then, if you feel confident, you might switch it to zero, or consult with the forum.
 
 chkinp: WARNING -
   Chksymbreak=1 . Found potentially symmetry-breaking value of tnons, 
   which is neither a rational fraction in 1/8th nor in 1/12th :
   for the symmetry number   29
   symrel is  -1  0  1 -1  0  0 -1  1  0
   tnons is    -1.000000E-02    1.000000E-02   -8.673617E-19
   Please, read the description of the input variable chksymbreak,
   then, if you feel confident, you might switch it to zero, or consult with the forum.
 
 chkinp: WARNING -
   Chksymbreak=1 . Found potentially symmetry-breaking value of tnons, 
   which is neither a rational fraction in 1/8th nor in 1/12th :
   for the symmetry number   30
   symrel is   1  0 -1  1  0  0  1 -1  0
   tnons is     2.500000E-01    2.500000E-01    2.400000E-01
   Please, read the description of the input variable chksymbreak,
   then, if you feel confident, you might switch it to zero, or consult with the forum.
 
 chkinp: WARNING -
   Chksymbreak=1 . Found potentially symmetry-breaking value of tnons, 
   which is neither a rational fraction in 1/8th nor in 1/12th :
   for the symmetry number   31
   symrel is   0  1  0  1  0  0  0  0  1
   tnons is    -1.000000E-02    1.000000E-02    0.000000E+00
   Please, read the description of the input variable chksymbreak,
   then, if you feel confident, you might switch it to zero, or consult with the forum.
 
 chkinp: WARNING -
   Chksymbreak=1 . Found potentially symmetry-breaking value of tnons, 
   which is neither a rational fraction in 1/8th nor in 1/12th :
   for the symmetry number   31
   symrel is   0  1  0  1  0  0  0  0  1
   tnons is    -1.000000E-02    1.000000E-02    0.000000E+00
   Please, read the description of the input variable chksymbreak,
   then, if you feel confident, you might switch it to zero, or consult with the forum.
 
 chkinp: WARNING -
   Chksymbreak=1 . Found potentially symmetry-breaking value of tnons, 
   which is neither a rational fraction in 1/8th nor in 1/12th :
   for the symmetry number   32
   symrel is   0 -1  0 -1  0  0  0  0 -1
   tnons is     2.500000E-01    2.500000E-01    2.400000E-01
   Please, read the description of the input variable chksymbreak,
   then, if you feel confident, you might switch it to zero, or consult with the forum.
 
 chkinp: WARNING -
   Chksymbreak=1 . Found potentially symmetry-breaking value of tnons, 
   which is neither a rational fraction in 1/8th nor in 1/12th :
   for the symmetry number   33
   symrel is   0  0 -1  0  1 -1  1  0 -1
   tnons is     8.673617E-19    0.000000E+00   -1.000000E-02
   Please, read the description of the input variable chksymbreak,
   then, if you feel confident, you might switch it to zero, or consult with the forum.
 
 chkinp: WARNING -
   Chksymbreak=1 . Found potentially symmetry-breaking value of tnons, 
   which is neither a rational fraction in 1/8th nor in 1/12th :
   for the symmetry number   34
   symrel is   0  0  1  0 -1  1 -1  0  1
   tnons is     2.400000E-01    2.600000E-01    2.500000E-01
   Please, read the description of the input variable chksymbreak,
   then, if you feel confident, you might switch it to zero, or consult with the forum.
 
 chkinp: WARNING -
   Chksymbreak=1 . Found potentially symmetry-breaking value of tnons, 
   which is neither a rational fraction in 1/8th nor in 1/12th :
   for the symmetry number   34
   symrel is   0  0  1  0 -1  1 -1  0  1
   tnons is     2.400000E-01    2.600000E-01    2.500000E-01
   Please, read the description of the input variable chksymbreak,
   then, if you feel confident, you might switch it to zero, or consult with the forum.
 
 chkinp: WARNING -
   Chksymbreak=1 . Found potentially symmetry-breaking value of tnons, 
   which is neither a rational fraction in 1/8th nor in 1/12th :
   for the symmetry number   35
   symrel is   1 -1  0  0 -1  1  0 -1  0
   tnons is     0.000000E+00   -2.602085E-18   -1.000000E-02
   Please, read the description of the input variable chksymbreak,
   then, if you feel confident, you might switch it to zero, or consult with the forum.
 
 chkinp: WARNING -
   Chksymbreak=1 . Found potentially symmetry-breaking value of tnons, 
   which is neither a rational fraction in 1/8th nor in 1/12th :
   for the symmetry number   36
   symrel is  -1  1  0  0  1 -1  0  1  0
   tnons is     2.400000E-01    2.600000E-01    2.500000E-01
   Please, read the description of the input variable chksymbreak,
   then, if you feel confident, you might switch it to zero, or consult with the forum.
 
 chkinp: WARNING -
   Chksymbreak=1 . Found potentially symmetry-breaking value of tnons, 
   which is neither a rational fraction in 1/8th nor in 1/12th :
   for the symmetry number   36
   symrel is  -1  1  0  0  1 -1  0  1  0
   tnons is     2.400000E-01    2.600000E-01    2.500000E-01
   Please, read the description of the input variable chksymbreak,
   then, if you feel confident, you might switch it to zero, or consult with the forum.
 
 chkinp: WARNING -
   Chksymbreak=1 . Found potentially symmetry-breaking value of tnons, 
   which is neither a rational fraction in 1/8th nor in 1/12th :
   for the symmetry number   37
   symrel is   0  0  1  1  0  0  0  1  0
   tnons is    -1.000000E-02    1.000000E-02   -8.673617E-19
   Please, read the description of the input variable chksymbreak,
   then, if you feel confident, you might switch it to zero, or consult with the forum.
 
 chkinp: WARNING -
   Chksymbreak=1 . Found potentially symmetry-breaking value of tnons, 
   which is neither a rational fraction in 1/8th nor in 1/12th :
   for the symmetry number   37
   symrel is   0  0  1  1  0  0  0  1  0
   tnons is    -1.000000E-02    1.000000E-02   -8.673617E-19
   Please, read the description of the input variable chksymbreak,
   then, if you feel confident, you might switch it to zero, or consult with the forum.
 
 chkinp: WARNING -
   Chksymbreak=1 . Found potentially symmetry-breaking value of tnons, 
   which is neither a rational fraction in 1/8th nor in 1/12th :
   for the symmetry number   38
   symrel is   0  0 -1 -1  0  0  0 -1  0
   tnons is     2.500000E-01    2.500000E-01    2.400000E-01
   Please, read the description of the input variable chksymbreak,
   then, if you feel confident, you might switch it to zero, or consult with the forum.
 
 chkinp: WARNING -
   Chksymbreak=1 . Found potentially symmetry-breaking value of tnons, 
   which is neither a rational fraction in 1/8th nor in 1/12th :
   for the symmetry number   39
   symrel is  -1  1  0 -1  0  0 -1  0  1
   tnons is    -1.000000E-02    1.000000E-02    0.000000E+00
   Please, read the description of the input variable chksymbreak,
   then, if you feel confident, you might switch it to zero, or consult with the forum.
 
 chkinp: WARNING -
   Chksymbreak=1 . Found potentially symmetry-breaking value of tnons, 
   which is neither a rational fraction in 1/8th nor in 1/12th :
   for the symmetry number   39
   symrel is  -1  1  0 -1  0  0 -1  0  1
   tnons is    -1.000000E-02    1.000000E-02    0.000000E+00
   Please, read the description of the input variable chksymbreak,
   then, if you feel confident, you might switch it to zero, or consult with the forum.
 
 chkinp: WARNING -
   Chksymbreak=1 . Found potentially symmetry-breaking value of tnons, 
   which is neither a rational fraction in 1/8th nor in 1/12th :
   for the symmetry number   40
   symrel is   1 -1  0  1  0  0  1  0 -1
   tnons is     2.500000E-01    2.500000E-01    2.400000E-01
   Please, read the description of the input variable chksymbreak,
   then, if you feel confident, you might switch it to zero, or consult with the forum.
 
 chkinp: WARNING -
   Chksymbreak=1 . Found potentially symmetry-breaking value of tnons, 
   which is neither a rational fraction in 1/8th nor in 1/12th :
   for the symmetry number   42
   symrel is   0  0 -1  0 -1  0 -1  0  0
   tnons is     2.400000E-01    2.600000E-01    2.400000E-01
   Please, read the description of the input variable chksymbreak,
   then, if you feel confident, you might switch it to zero, or consult with the forum.
 
 chkinp: WARNING -
   Chksymbreak=1 . Found potentially symmetry-breaking value of tnons, 
   which is neither a rational fraction in 1/8th nor in 1/12th :
   for the symmetry number   42
   symrel is   0  0 -1  0 -1  0 -1  0  0
   tnons is     2.400000E-01    2.600000E-01    2.400000E-01
   Please, read the description of the input variable chksymbreak,
   then, if you feel confident, you might switch it to zero, or consult with the forum.
 
 chkinp: WARNING -
   Chksymbreak=1 . Found potentially symmetry-breaking value of tnons, 
   which is neither a rational fraction in 1/8th nor in 1/12th :
   for the symmetry number   42
   symrel is   0  0 -1  0 -1  0 -1  0  0
   tnons is     2.400000E-01    2.600000E-01    2.400000E-01
   Please, read the description of the input variable chksymbreak,
   then, if you feel confident, you might switch it to zero, or consult with the forum.
 
 chkinp: WARNING -
   Chksymbreak=1 . Found potentially symmetry-breaking value of tnons, 
   which is neither a rational fraction in 1/8th nor in 1/12th :
   for the symmetry number   44
   symrel is  -1  1  0  0  1  0  0  1 -1
   tnons is     2.400000E-01    2.600000E-01    2.400000E-01
   Please, read the description of the input variable chksymbreak,
   then, if you feel confident, you might switch it to zero, or consult with the forum.
 
 chkinp: WARNING -
   Chksymbreak=1 . Found potentially symmetry-breaking value of tnons, 
   which is neither a rational fraction in 1/8th nor in 1/12th :
   for the symmetry number   44
   symrel is  -1  1  0  0  1  0  0  1 -1
   tnons is     2.400000E-01    2.600000E-01    2.400000E-01
   Please, read the description of the input variable chksymbreak,
   then, if you feel confident, you might switch it to zero, or consult with the forum.
 
 chkinp: WARNING -
   Chksymbreak=1 . Found potentially symmetry-breaking value of tnons, 
   which is neither a rational fraction in 1/8th nor in 1/12th :
   for the symmetry number   44
   symrel is  -1  1  0  0  1  0  0  1 -1
   tnons is     2.400000E-01    2.600000E-01    2.400000E-01
   Please, read the description of the input variable chksymbreak,
   then, if you feel confident, you might switch it to zero, or consult with the forum.
 
 chkinp: WARNING -
   Chksymbreak=1 . Found potentially symmetry-breaking value of tnons, 
   which is neither a rational fraction in 1/8th nor in 1/12th :
   for the symmetry number   45
   symrel is   0  0 -1  1  0 -1  0  1 -1
   tnons is    -1.000000E-02    1.000000E-02   -1.000000E-02
   Please, read the description of the input variable chksymbreak,
   then, if you feel confident, you might switch it to zero, or consult with the forum.
 
 chkinp: WARNING -
   Chksymbreak=1 . Found potentially symmetry-breaking value of tnons, 
   which is neither a rational fraction in 1/8th nor in 1/12th :
   for the symmetry number   45
   symrel is   0  0 -1  1  0 -1  0  1 -1
   tnons is    -1.000000E-02    1.000000E-02   -1.000000E-02
   Please, read the description of the input variable chksymbreak,
   then, if you feel confident, you might switch it to zero, or consult with the forum.
 
 chkinp: WARNING -
   Chksymbreak=1 . Found potentially symmetry-breaking value of tnons, 
   which is neither a rational fraction in 1/8th nor in 1/12th :
   for the symmetry number   45
   symrel is   0  0 -1  1  0 -1  0  1 -1
   tnons is    -1.000000E-02    1.000000E-02   -1.000000E-02
   Please, read the description of the input variable chksymbreak,
   then, if you feel confident, you might switch it to zero, or consult with the forum.
 
 chkinp: WARNING -
   Chksymbreak=1 . Found potentially symmetry-breaking value of tnons, 
   which is neither a rational fraction in 1/8th nor in 1/12th :
   for the symmetry number   47
   symrel is  -1  1  0 -1  0  1 -1  0  0
   tnons is    -1.000000E-02    1.000000E-02   -1.000000E-02
   Please, read the description of the input variable chksymbreak,
   then, if you feel confident, you might switch it to zero, or consult with the forum.
 
 chkinp: WARNING -
   Chksymbreak=1 . Found potentially symmetry-breaking value of tnons, 
   which is neither a rational fraction in 1/8th nor in 1/12th :
   for the symmetry number   47
   symrel is  -1  1  0 -1  0  1 -1  0  0
   tnons is    -1.000000E-02    1.000000E-02   -1.000000E-02
   Please, read the description of the input variable chksymbreak,
   then, if you feel confident, you might switch it to zero, or consult with the forum.
 
 chkinp: WARNING -
   Chksymbreak=1 . Found potentially symmetry-breaking value of tnons, 
   which is neither a rational fraction in 1/8th nor in 1/12th :
   for the symmetry number   47
   symrel is  -1  1  0 -1  0  1 -1  0  0
   tnons is    -1.000000E-02    1.000000E-02   -1.000000E-02
   Please, read the description of the input variable chksymbreak,
   then, if you feel confident, you might switch it to zero, or consult with the forum.
 
================================================================================
== DATASET  1 ==================================================================
-   nproc =    1
 
 Exchange-correlation functional for the present dataset will be:
  GGA: Perdew-Burke-Ernzerhof functional - ixc=11
 Citation for XC functional:
  J.P.Perdew, K.Burke, M.Ernzerhof, PRL 77, 3865 (1996)
 
 Real(R)+Recip(G) space primitive vectors, cartesian coordinates (Bohr,Bohr^-1):
 R(1)=  5.1672906  5.1672906 -0.0000000  G(1)=  0.0967625  0.0967625 -0.0967625
 R(2)=  0.0000000  5.1672906  5.1672906  G(2)= -0.0967625  0.0967625  0.0967625
 R(3)=  5.1672906 -0.0000000  5.1672906  G(3)=  0.0967625 -0.0967625  0.0967625
 Unit cell volume ucvol=  2.7594254E+02 bohr^3
 Angles (23,13,12)=  6.00000000E+01  6.00000000E+01  6.00000000E+01 degrees
 
 getcut: wavevector=  0.0000  0.0000  0.0000  ngfft=  30  30  30
         ecut(hartree)=     16.000   => boxcut(ratio)=   2.28244
 
 getcut : COMMENT -
  Note that boxcut > 2.2 ; recall that boxcut=Gcut(box)/Gcut(sphere) = 2
  is sufficient for exact treatment of convolution.
  Such a large boxcut is a waste : you could raise ecut
  e.g. ecut=   20.838215 Hartrees makes boxcut=2
 
 
--- Pseudopotential description ------------------------------------------------
- pspini: atom type   1  psp file is /CECI/home/ucl/naps/jovbever/.PsP/Si/Si.psp8
- pspatm: opening atomic psp file    /CECI/home/ucl/naps/jovbever/.PsP/Si/Si.psp8
- Si    ONCVPSP-3.2.3.1  r_core=   1.60303   1.72197   1.91712
- 14.00000   4.00000    170510                znucl, zion, pspdat
    8   11    2    4       600   0.00000      pspcod,pspxc,lmax,lloc,mmax,r2well
    5.99000000000000    4.00000000000000    0.00000000000000   rchrg,fchrg,qchrg
     nproj     2     2     2
     extension_switch     1
  pspatm : epsatm=    9.34321699
         --- l  ekb(1:nproj) -->
             0    5.168965    0.829883
             1    2.571282    0.578307
             2   -2.427311   -0.488097
 pspatm: atomic psp has been read  and splines computed
 
   1.49491472E+02                                ecore*ucvol(ha*bohr**3)
--------------------------------------------------------------------------------
 
_setup2: Arith. and geom. avg. npw (full set) are     844.031     844.011
 
================================================================================
 
     iter   Etot(hartree)      deltaE(h)  residm     vres2
 ETOT  1  -8.4584904971958    -8.458E+00 1.190E-02 5.768E+00
 ETOT  2  -8.4624139372179    -3.923E-03 9.947E-07 1.229E-01
 ETOT  3  -8.4624446240617    -3.069E-05 2.211E-07 7.032E-04
 ETOT  4  -8.4624447219962    -9.793E-08 6.326E-10 4.169E-05
 ETOT  5  -8.4624447285397    -6.544E-09 6.658E-11 7.348E-07
 ETOT  6  -8.4624447286029    -6.318E-11 2.864E-13 2.580E-08
 ETOT  7  -8.4624447286042    -1.286E-12 1.069E-14 2.657E-10
 ETOT  8  -8.4624447286042     3.553E-15 8.776E-17 5.416E-13
 
 At SCF step    8       vres2   =  5.42E-13 < tolvrs=  1.00E-10 =>converged.
