  ABINIT 8.11.13
  
  Give name for formatted input file: 
sp.in
  Give name for formatted output file:
sp.out
  Give root name for generic input files:
spi
  Give root name for generic output files:
spo
  Give root name for generic temporary files:
sp

.Version 8.11.13 of ABINIT 
.(MPI version, prepared for a x86_64_linux_intel14.0 computer) 

.Copyright (C) 1998-2019 ABINIT group . 
 ABINIT comes with ABSOLUTELY NO WARRANTY.
 It is free software, and you are welcome to redistribute it
 under certain conditions (GNU General Public License,
 see ~abinit/COPYING or http://www.gnu.org/copyleft/gpl.txt).

 ABINIT is a project of the Universite Catholique de Louvain,
 Corning Inc. and other collaborators, see ~abinit/doc/developers/contributors.txt .
 Please read https://docs.abinit.org/theory/acknowledgments for suggested
 acknowledgments of the ABINIT effort.
 For more information, see https://www.abinit.org .

.Starting date : Thu 19 Dec 2019.
- ( at 14h57 )
  
 
 ++++++++++++++++++++++++++++++++++++++++++++++++++++++++++++++++++++++++++++++
 
 === Build Information === 
  Version       : 8.11.13
  Build target  : x86_64_linux_intel14.0
  Build date    : 20191206
 
 === Compiler Suite === 
  C compiler       : intel14.0
  C++ compiler     : gnu14.0
  Fortran compiler : intel14.0
  CFLAGS           :  -g -O2
  CXXFLAGS         :  -g -O2 -mtune=native -march=native
  FCFLAGS          :  -g -extend-source -nofpscomp
  FC_LDFLAGS       :    -static-intel -static-libgcc
 
 === Optimizations === 
  Debug level        : basic
  Optimization level : standard
  Architecture       : intel_xeon
 
 === Multicore === 
  Parallel build : yes
  Parallel I/O   : yes
  openMP support : no
  GPU support    : no
 
 === Connectors / Fallbacks === 
  Connectors on : yes
  Fallbacks on  : yes
  DFT flavor    : libxc-fallback
  FFT flavor    : fftw3
  LINALG flavor : mkl
  TIMER flavor  : abinit
  TRIO flavor   : netcdf
 
 === Experimental features === 
  Exports             : no
  GW double-precision : yes
 
 ++++++++++++++++++++++++++++++++++++++++++++++++++++++++++++++++++++++++++++++
 

 ++++++++++++++++++++++++++++++++++++++++++++++++++++++++++++++++++++++++++++++
 Default optimizations:
   -O3


 Optimizations for 43_ptgroups:
   -O0


 ++++++++++++++++++++++++++++++++++++++++++++++++++++++++++++++++++++++++++++++


 ++++++++++++++++++++++++++++++++++++++++++++++++++++++++++++++++++++++++++++++
 CPP options activated during the build:

                  CC_INTEL                   CXX_GNU                  FC_INTEL
 
 HAVE_FC_ALLOCATABLE_DT...             HAVE_FC_ASYNC  HAVE_FC_COMMAND_ARGUMENT
 
        HAVE_FC_CONTIGUOUS           HAVE_FC_CPUTIME             HAVE_FC_ETIME
 
              HAVE_FC_EXIT             HAVE_FC_FLUSH             HAVE_FC_GAMMA
 
            HAVE_FC_GETENV            HAVE_FC_GETPID   HAVE_FC_IEEE_ARITHMETIC
 
   HAVE_FC_IEEE_EXCEPTIONS             HAVE_FC_IOMSG     HAVE_FC_ISO_C_BINDING
 
  HAVE_FC_ISO_FORTRAN_2008        HAVE_FC_LONG_LINES        HAVE_FC_MOVE_ALLOC
 
  HAVE_FC_ON_THE_FLY_SHAPE           HAVE_FC_PRIVATE         HAVE_FC_PROTECTED
 
           HAVE_FC_SHIFTLR         HAVE_FC_STREAM_IO            HAVE_FC_SYSTEM
 
                  HAVE_FFT            HAVE_FFT_FFTW3              HAVE_FFT_MPI
 
           HAVE_FFT_SERIAL               HAVE_GW_DPC        HAVE_LIBPAW_ABINIT
 
      HAVE_LIBTETRA_ABINIT                HAVE_LIBXC               HAVE_LINALG
 
         HAVE_LINALG_AXPBY        HAVE_LINALG_GEMM3M  HAVE_LINALG_MKL_IMATCOPY
 
   HAVE_LINALG_MKL_OMATADD  HAVE_LINALG_MKL_OMATCOPY   HAVE_LINALG_MKL_THREADS
 
        HAVE_LINALG_SERIAL                  HAVE_MPI                 HAVE_MPI2
 
       HAVE_MPI_IALLREDUCE        HAVE_MPI_IALLTOALL       HAVE_MPI_IALLTOALLV
 
           HAVE_MPI_IBCAST         HAVE_MPI_IGATHERV        HAVE_MPI_INTEGER16
 
               HAVE_MPI_IO HAVE_MPI_TYPE_CREATE_S...               HAVE_NETCDF
 
           HAVE_NETCDF_MPI                HAVE_NUMPY             HAVE_OS_LINUX
 
         HAVE_TIMER_ABINIT                  HAVE_XML              USE_MACROAVE
 
 ++++++++++++++++++++++++++++++++++++++++++++++++++++++++++++++++++++++++++++++

- input  file    -> sp.in
- output file    -> sp.out
- root for input  files -> spi
- root for output files -> spo
 
Netcdf library supports MPI-IO
-instrng: 64 lines of input have been read from file sp.in
 

 Please give name of formatted atomic psp file
 For atom type 1, psp file is /CECI/home/ucl/naps/jovbever/.PsP/CTO/Ca.psp8

 Please give name of formatted atomic psp file
 For atom type 2, psp file is /CECI/home/ucl/naps/jovbever/.PsP/CTO/Ti.psp8

 Please give name of formatted atomic psp file
 For atom type 3, psp file is /CECI/home/ucl/naps/jovbever/.PsP/CTO/O.psp8
  read the values zionpsp= 10.0 , pspcod=   8 , lmax=   2
  read the values zionpsp= 12.0 , pspcod=   8 , lmax=   2
  read the values zionpsp=  6.0 , pspcod=   8 , lmax=   2
 
 inpspheads: deduce mpsang = 3, n1xccc = 2501.

======================================================= 
invars1m : enter jdtset= 0
 
 symlatt: the Bravais lattice is oP (primitive orthorhombic)
  xred   is defined in input file
 ingeo: takes atomic coordinates from input array xred
 
 symlatt: the Bravais lattice is oP (primitive orthorhombic)
 
 symlatt: the Bravais lattice is oP (primitive orthorhombic)
 symspgr: spgroup=  62  Pn m a   (=D2h^16)
 For input ecut=  1.800000E+02 best grid ngfft=      72      72      96
       max ecut=  1.919151E+02
 
 ==== FFT mesh ====
  FFT mesh divisions ........................    72   72   96
  Augmented FFT divisions ...................    73   73   96
  FFT algorithm .............................   312
  FFT cache size ............................    16
 getmpw: optimal value of mpw= 26467
 
 Symmetries : space group Pn m a (# 62); Bravais oP (primitive ortho.)
 
 getdim_nloc : deduce lmnmax  =  18, lnmax  =   6,
                      lmnmaxso=  18, lnmaxso=   6.
memory: analysis of memory needs
================================================================================
 Values of the parameters that define the memory need of the present run
     intxc =       0    ionmov =       2      iscf =       7    lmnmax =       6
     lnmax =       6     mgfft =      96  mpssoang =       3    mqgrid =    4649
     natom =      20  nloc_mem =       1    nspden =       1   nspinor =       1
    nsppol =       1      nsym =       8    n1xccc =    2501    ntypat =       3
    occopt =       1   xclevel =       2
-    mband =          90        mffmem =           1         mkmem =           1
       mpw =       26467          nfft =      497664          nkpt =           8
================================================================================
P This job should need less than                     198.801 Mbytes of memory.
  Rough estimation (10% accuracy) of disk space for files :
_ WF disk file :    290.777 Mbytes ; DEN or POT disk file :      3.799 Mbytes.
================================================================================
 
 Biggest array : f_fftgr(disk), with     60.7520 MBytes.
 memana : allocated an array of     60.752 Mbytes, for testing purposes.
 memana: allocated     198.801Mbytes, for testing purposes. 
 The job will continue.
--------------------------------------------------------------------------------
------------- Echo of variables that govern the present computation ------------
--------------------------------------------------------------------------------
-
- outvars: echo of selected default values                                      
-   iomode0 =  0 , fftalg0 =312 , wfoptalg0 =  0
-
- outvars: echo of global parameters not present in the input file              
-  max_nthreads =    0
-
 -outvars: echo values of preprocessed input variables --------
 
 These variables are accessible in NetCDF format (spo_OUT.nc)

            acell      5.4040000000E+00  5.5130000000E+00  7.6970000000E+00 Bohr
              amu      4.00780000E+01  4.78800000E+01  1.59994000E+01
       chkdilatmx           0
          dilatmx      2.00000000E+00
             ecut      4.50000000E+01 Hartree
           ecutsm      5.00000000E-01 Hartree
-          fftalg         312
           ionmov           2
              ixc          11
              kpt      1.25000000E-01  1.25000000E-01  1.25000000E-01
                       3.75000000E-01  1.25000000E-01  1.25000000E-01
                       1.25000000E-01  3.75000000E-01  1.25000000E-01
                       3.75000000E-01  3.75000000E-01  1.25000000E-01
                       1.25000000E-01  1.25000000E-01  3.75000000E-01
                       3.75000000E-01  1.25000000E-01  3.75000000E-01
                       1.25000000E-01  3.75000000E-01  3.75000000E-01
                       3.75000000E-01  3.75000000E-01  3.75000000E-01
         kptrlatt        4    0    0      0    4    0      0    0    4
          kptrlen      2.16160000E+01
P           mkmem           1
            natom          20
            nband          90
            ngfft          72      72      96
             nkpt           8
             nsym           8
            ntime          20
           ntypat           3
              occ      2.000000  2.000000  2.000000  2.000000  2.000000  2.000000
                       2.000000  2.000000  2.000000  2.000000  2.000000  2.000000
                       2.000000  2.000000  2.000000  2.000000  2.000000  2.000000
                       2.000000  2.000000  2.000000  2.000000  2.000000  2.000000
                       2.000000  2.000000  2.000000  2.000000  2.000000  2.000000
                       2.000000  2.000000  2.000000  2.000000  2.000000  2.000000
                       2.000000  2.000000  2.000000  2.000000  2.000000  2.000000
                       2.000000  2.000000  2.000000  2.000000  2.000000  2.000000
                       2.000000  2.000000  2.000000  2.000000  2.000000  2.000000
                       2.000000  2.000000  2.000000  2.000000  2.000000  2.000000
                       2.000000  2.000000  2.000000  2.000000  2.000000  2.000000
                       2.000000  2.000000  2.000000  2.000000  2.000000  2.000000
                       2.000000  2.000000  2.000000  2.000000  2.000000  2.000000
                       2.000000  2.000000  0.000000  0.000000  0.000000  0.000000
                       0.000000  0.000000  0.000000  0.000000  0.000000  0.000000
          optcell           2
           shiftk      5.00000000E-01  5.00000000E-01  5.00000000E-01
          spgroup          62
           symrel      1  0  0   0  1  0   0  0  1      -1  0  0   0 -1  0   0  0 -1
                      -1  0  0   0  1  0   0  0 -1       1  0  0   0 -1  0   0  0  1
                      -1  0  0   0 -1  0   0  0  1       1  0  0   0  1  0   0  0 -1
                       1  0  0   0 -1  0   0  0 -1      -1  0  0   0  1  0   0  0  1
            tnons      0.0000000  0.0000000  0.0000000     0.0000000  0.0000000  0.0000000
                       0.5000000  0.5000000  0.5000000     0.5000000  0.5000000  0.5000000
                       0.0000000  0.0000000  0.5000000     0.0000000  0.0000000  0.5000000
                       0.5000000  0.5000000  0.0000000     0.5000000  0.5000000  0.0000000
           tolvrs      1.00000000E-08
            typat      1  1  1  1  2  2  2  2  3  3  3  3  3  3  3  3  3  3  3  3
              wtk        0.12500    0.12500    0.12500    0.12500    0.12500    0.12500
                         0.12500    0.12500
           xangst      2.4307225899E-02  2.7866564940E+00  3.0548077309E+00
                       1.4055295917E+00  1.3279795185E+00  3.0548077309E+00
                       1.4541440435E+00  1.5893744325E+00  1.0182692436E+00
                       2.8353664093E+00  1.3069745700E-01  1.0182692436E+00
                       0.0000000000E+00  1.4586769755E+00  0.0000000000E+00
                       0.0000000000E+00  1.4586769755E+00  2.0365384873E+00
                       1.4298368176E+00  0.0000000000E+00  0.0000000000E+00
                       1.4298368176E+00  0.0000000000E+00  2.0365384873E+00
                       2.2334051091E-01  1.3985794841E+00  1.0182692436E+00
                       5.9338227931E-01  6.0710135719E-01  2.2023127201E+00
                       5.9338227931E-01  6.0710135719E-01  3.9073027417E+00
                       8.3645453830E-01  2.0657783327E+00  3.9073027417E+00
                       8.3645453830E-01  2.0657783327E+00  2.2023127201E+00
                       1.2064963067E+00  2.8572564596E+00  1.0182692436E+00
                       1.6531773285E+00  6.0097491390E-02  3.0548077309E+00
                       2.0232190969E+00  8.5157561828E-01  1.8707642544E+00
                       2.0232190969E+00  8.5157561828E-01  1.6577423286E-01
                       2.2662913559E+00  2.3102525938E+00  1.6577423286E-01
                       2.2662913559E+00  2.3102525938E+00  1.8707642544E+00
                       2.6363331243E+00  1.5187744669E+00  3.0548077309E+00
            xcart      4.5934000000E-02  5.2660176000E+00  5.7727500000E+00
                       2.6560660000E+00  2.5095176000E+00  5.7727500000E+00
                       2.7479340000E+00  3.0034824000E+00  1.9242500000E+00
                       5.3580660000E+00  2.4698240000E-01  1.9242500000E+00
                       0.0000000000E+00  2.7565000000E+00  0.0000000000E+00
                       0.0000000000E+00  2.7565000000E+00  3.8485000000E+00
                       2.7020000000E+00  0.0000000000E+00  0.0000000000E+00
                       2.7020000000E+00  0.0000000000E+00  3.8485000000E+00
                       4.2205240000E-01  2.6429322000E+00  1.9242500000E+00
                       1.1213300000E+00  1.1472553000E+00  4.1617679000E+00
                       1.1213300000E+00  1.1472553000E+00  7.3837321000E+00
                       1.5806700000E+00  3.9037553000E+00  7.3837321000E+00
                       1.5806700000E+00  3.9037553000E+00  4.1617679000E+00
                       2.2799476000E+00  5.3994322000E+00  1.9242500000E+00
                       3.1240524000E+00  1.1356780000E-01  5.7727500000E+00
                       3.8233300000E+00  1.6092447000E+00  3.5352321000E+00
                       3.8233300000E+00  1.6092447000E+00  3.1326790000E-01
                       4.2826700000E+00  4.3657447000E+00  3.1326790000E-01
                       4.2826700000E+00  4.3657447000E+00  3.5352321000E+00
                       4.9819476000E+00  2.8700678000E+00  5.7727500000E+00
             xred      8.5000000000E-03  9.5520000000E-01  7.5000000000E-01
                       4.9150000000E-01  4.5520000000E-01  7.5000000000E-01
                       5.0850000000E-01  5.4480000000E-01  2.5000000000E-01
                       9.9150000000E-01  4.4800000000E-02  2.5000000000E-01
                       0.0000000000E+00  5.0000000000E-01  0.0000000000E+00
                       0.0000000000E+00  5.0000000000E-01  5.0000000000E-01
                       5.0000000000E-01  0.0000000000E+00  0.0000000000E+00
                       5.0000000000E-01  0.0000000000E+00  5.0000000000E-01
                       7.8100000000E-02  4.7940000000E-01  2.5000000000E-01
                       2.0750000000E-01  2.0810000000E-01  5.4070000000E-01
                       2.0750000000E-01  2.0810000000E-01  9.5930000000E-01
                       2.9250000000E-01  7.0810000000E-01  9.5930000000E-01
                       2.9250000000E-01  7.0810000000E-01  5.4070000000E-01
                       4.2190000000E-01  9.7940000000E-01  2.5000000000E-01
                       5.7810000000E-01  2.0600000000E-02  7.5000000000E-01
                       7.0750000000E-01  2.9190000000E-01  4.5930000000E-01
                       7.0750000000E-01  2.9190000000E-01  4.0700000000E-02
                       7.9250000000E-01  7.9190000000E-01  4.0700000000E-02
                       7.9250000000E-01  7.9190000000E-01  4.5930000000E-01
                       9.2190000000E-01  5.2060000000E-01  7.5000000000E-01
            znucl       20.00000   22.00000    8.00000
 
================================================================================
 
 chkinp: Checking input parameters for consistency.
 DATA TYPE INFORMATION: 
 REAL:      Data type name: REAL(DP) 
            Kind value:      8
            Precision:      15
            Smallest nonnegligible quantity relative to 1:  0.22204460E-15
            Smallest positive number:                       0.22250739-307
            Largest representable number:                   0.17976931+309
 INTEGER:   Data type name: INTEGER(default) 
            Kind value: 4
            Bit size:   32
            Largest representable number: 2147483647
 LOGICAL:   Data type name: LOGICAL 
            Kind value: 4
 CHARACTER: Data type name: CHARACTER             Kind value: 1

  ==== OpenMP parallelism is OFF ====
 
  ==== Using MPI-2 specifications ==== 
  MPI-IO support is ON
  xmpi_tag_ub ................   1073741824
  xmpi_bsize_ch ..............            1
  xmpi_bsize_int .............            4
  xmpi_bsize_sp ..............            4
  xmpi_bsize_dp ..............            8
  xmpi_bsize_spc .............            8
  xmpi_bsize_dpc .............           16
  xmpio_bsize_frm ............            4
  xmpi_address_kind ..........            8
  xmpi_offset_kind ...........            8
  MPI_WTICK ..................   1.000000000000000E-006
 
================================================================================
== DATASET  1 ==================================================================
-   nproc =    8
 
 
--- !COMMENT
src_file: m_xgScalapack.F90
src_line: 237
message: |
    xgScalapack in auto mode
...
 
 
 getdim_nloc : deduce lmnmax  =  18, lnmax  =   6,
                      lmnmaxso=  18, lnmaxso=   6.
 Exchange-correlation functional for the present dataset will be:
  GGA: Perdew-Burke-Ernzerhof functional - ixc=11
 Citation for XC functional:
  J.P.Perdew, K.Burke, M.Ernzerhof, PRL 77, 3865 (1996)
 
 Unit cell volume ucvol=  2.2931096E+02 bohr^3
 Angles (23,13,12)=  9.00000000E+01  9.00000000E+01  9.00000000E+01 degrees
 
 getcut: wavevector=  0.0000  0.0000  0.0000  ngfft=  72  72  96
         ecut(hartree)=    180.000   => boxcut(ratio)=   2.06513
- pspini: atom type   1  psp file is /CECI/home/ucl/naps/jovbever/.PsP/CTO/Ca.psp8
- pspatm: opening atomic psp file    /CECI/home/ucl/naps/jovbever/.PsP/CTO/Ca.psp8
- Ca    ONCVPSP-3.2.3.1  r_core=   1.45885   1.45885   1.85192
- 20.00000  10.00000    170504                znucl, zion, pspdat
    8   11    2    4       400   0.00000      pspcod,pspxc,lmax,lloc,mmax,r2well
    3.99000000000000    6.00000000000000    0.00000000000000   rchrg,fchrg,qchrg
     nproj     2     2     2
     extension_switch     1
  valence charge integrates to:    9.09063937994142     
  pspatm : epsatm=   12.33414111
         --- l  ekb(1:nproj) -->
             0   10.063789    0.972391
             1    3.049878    0.471799
             2   -3.406671   -1.078890
 pspatm: atomic psp has been read  and splines computed
 
- pspini: atom type   2  psp file is /CECI/home/ucl/naps/jovbever/.PsP/CTO/Ti.psp8
- pspatm: opening atomic psp file    /CECI/home/ucl/naps/jovbever/.PsP/CTO/Ti.psp8
- Ti    ONCVPSP-3.2.3.1  r_core=   1.35825   1.31050   1.66360
- 22.00000  12.00000    170504                znucl, zion, pspdat
    8   11    2    4       600   0.00000      pspcod,pspxc,lmax,lloc,mmax,r2well
    5.99000000000000    2.50000000000000    0.00000000000000   rchrg,fchrg,qchrg
     nproj     2     2     2
     extension_switch     1
  valence charge integrates to:    11.8891845495734     
  pspatm : epsatm=   14.68144390
         --- l  ekb(1:nproj) -->
             0   11.362348    1.263639
             1    1.975402   -0.084666
             2   -5.186090   -1.477451
 pspatm: atomic psp has been read  and splines computed
 
- pspini: atom type   3  psp file is /CECI/home/ucl/naps/jovbever/.PsP/CTO/O.psp8
- pspatm: opening atomic psp file    /CECI/home/ucl/naps/jovbever/.PsP/CTO/O.psp8
- O     ONCVPSP-3.2.3.1  r_core=   1.35509   1.45563   1.26150
-  8.00000   6.00000    170504                znucl, zion, pspdat
    8   11    2    4       600   0.00000      pspcod,pspxc,lmax,lloc,mmax,r2well
    5.99000000000000    4.00000000000000    0.00000000000000   rchrg,fchrg,qchrg
     nproj     2     2     1
     extension_switch     1
  valence charge integrates to:    5.99903187524054     
  pspatm : epsatm=    6.19546011
         --- l  ekb(1:nproj) -->
             0    6.056735    0.824024
             1   -4.717130   -1.149271
             2   -1.331955
 pspatm: atomic psp has been read  and splines computed
 
   2.91852578E+04                                ecore*ucvol(ha*bohr**3)
 ==== Info on pseudopotentials ====
  Norm-conserving pseudopotentials
  Number of pseudopotentials ..    3
  Number of types of atoms   ..    3
  Scalar calculation (no spin-orbit term)
  Nonlocal part applied using Legendre polynomials
  Max number of non-local projectors over l and type   2
  Highest angular momentum +1 .......   3
  Max number of (l,n)   components ..   6
  Max number of (l,m,n) components ..   6
 
 Pseudo-Core Charge Info: 
   Number of radial points for pseudo-core charge .. 2501
   XC core-correction treatment (optnlxccc) ........    1
   Radius for pseudo-core charge for each type ..... 
 
  - Atom type    1 has pseudo-core radius ..  3.9900
  - Atom type    2 has pseudo-core radius ..  5.9900
  - Atom type    3 has pseudo-core radius ..  5.9900
 
 Info on the Q-grid used for form factors in spline form: 
   Number of q-points for radial functions ffspl ..   4649
   Number of q-points for vlspl ...................   4649
   vloc is computed in Reciprocal Space
   model core charge treated in real-space
 
  XC functional for type 1 is 11
  Pseudo valence available: yes
  XC functional for type 2 is 11
  Pseudo valence available: yes
  XC functional for type 3 is 11
  Pseudo valence available: yes
 
 wfconv:    90 bands initialized randomly with npw= 26456, for ikpt=     1
_setup2: Arith. and geom. avg. npw (full set) are   26448.750   26448.746
 initro: for itypat=  1, take pseudo charge density from pp file
 initro: for itypat=  2, take pseudo charge density from pp file
 initro: for itypat=  3, take pseudo charge density from pp file
 
================================================================================
 
=== [ionmov= 2] Broyden-Fletcher-Goldfard-Shanno method (forces)            
================================================================================
 
--- Iteration: ( 1/20) Internal Cycle: (1/1)
--------------------------------------------------------------------------------
 
 Cartesian coordinates (xcart) [bohr]
  4.59340000000000E-02  5.26601760000000E+00  5.77275000000000E+00
  2.65606600000000E+00  2.50951760000000E+00  5.77275000000000E+00
  2.74793400000000E+00  3.00348240000000E+00  1.92425000000000E+00
  5.35806600000000E+00  2.46982400000000E-01  1.92425000000000E+00
  0.00000000000000E+00  2.75650000000000E+00  0.00000000000000E+00
  0.00000000000000E+00  2.75650000000000E+00  3.84850000000000E+00
  2.70200000000000E+00  0.00000000000000E+00  0.00000000000000E+00
  2.70200000000000E+00  0.00000000000000E+00  3.84850000000000E+00
  4.22052400000000E-01  2.64293220000000E+00  1.92425000000000E+00
  1.12133000000000E+00  1.14725530000000E+00  4.16176790000000E+00
  1.12133000000000E+00  1.14725530000000E+00  7.38373210000000E+00
  1.58067000000000E+00  3.90375530000000E+00  7.38373210000000E+00
  1.58067000000000E+00  3.90375530000000E+00  4.16176790000000E+00
  2.27994760000000E+00  5.39943220000000E+00  1.92425000000000E+00
  3.12405240000000E+00  1.13567800000000E-01  5.77275000000000E+00
  3.82333000000000E+00  1.60924470000000E+00  3.53523210000000E+00
  3.82333000000000E+00  1.60924470000000E+00  3.13267900000000E-01
  4.28267000000000E+00  4.36574470000000E+00  3.13267900000000E-01
  4.28267000000000E+00  4.36574470000000E+00  3.53523210000000E+00
  4.98194760000000E+00  2.87006780000000E+00  5.77275000000000E+00
 Reduced coordinates (xred)
  8.50000000000000E-03  9.55200000000000E-01  7.50000000000000E-01
  4.91500000000000E-01  4.55200000000000E-01  7.50000000000000E-01
  5.08500000000000E-01  5.44800000000000E-01  2.50000000000000E-01
  9.91500000000000E-01  4.48000000000000E-02  2.50000000000000E-01
  0.00000000000000E+00  5.00000000000000E-01  0.00000000000000E+00
  0.00000000000000E+00  5.00000000000000E-01  5.00000000000000E-01
  5.00000000000000E-01  0.00000000000000E+00  0.00000000000000E+00
  5.00000000000000E-01  0.00000000000000E+00  5.00000000000000E-01
  7.81000000000000E-02  4.79400000000000E-01  2.50000000000000E-01
  2.07500000000000E-01  2.08100000000000E-01  5.40700000000000E-01
  2.07500000000000E-01  2.08100000000000E-01  9.59300000000000E-01
  2.92500000000000E-01  7.08100000000000E-01  9.59300000000000E-01
  2.92500000000000E-01  7.08100000000000E-01  5.40700000000000E-01
  4.21900000000000E-01  9.79400000000000E-01  2.50000000000000E-01
  5.78100000000000E-01  2.06000000000000E-02  7.50000000000000E-01
  7.07500000000000E-01  2.91900000000000E-01  4.59300000000000E-01
  7.07500000000000E-01  2.91900000000000E-01  4.07000000000000E-02
  7.92500000000000E-01  7.91900000000000E-01  4.07000000000000E-02
  7.92500000000000E-01  7.91900000000000E-01  4.59300000000000E-01
  9.21900000000000E-01  5.20600000000000E-01  7.50000000000000E-01
 Scale of Primitive Cell (acell) [bohr]
  5.40400000000000E+00  5.51300000000000E+00  7.69700000000000E+00
 Real space primitive translations (rprimd) [bohr]
  5.40400000000000E+00  0.00000000000000E+00  0.00000000000000E+00
  0.00000000000000E+00  5.51300000000000E+00  0.00000000000000E+00
  0.00000000000000E+00  0.00000000000000E+00  7.69700000000000E+00
 Unitary Cell Volume (ucvol) [Bohr^3]=  2.29310963644000E+02
 Angles (23,13,12)= [degrees]
  9.00000000000000E+01  9.00000000000000E+01  9.00000000000000E+01
 Lengths [Bohr]
  5.40400000000000E+00  5.51300000000000E+00  7.69700000000000E+00
 
---SELF-CONSISTENT-FIELD CONVERGENCE--------------------------------------------
 
 getcut: wavevector=  0.0000  0.0000  0.0000  ngfft=  72  72  96
         ecut(hartree)=     45.000   => boxcut(ratio)=   4.13027
 
 getcut : COMMENT -
  Note that boxcut > 2.2 ; recall that boxcut=Gcut(box)/Gcut(sphere) = 2
  is sufficient for exact treatment of convolution.
  Such a large boxcut is a waste : you could raise ecut
  e.g. ecut=  191.915146 Hartrees makes boxcut=2
 
 
 ITER STEP NUMBER     1
 vtorho: nnsclo_now=2, note that nnsclo,dbl_nnsclo,istep=0 0 1
 Total charge density [el/Bohr^3]
      Maximum=    1.9178E+00  at reduced coord.    0.0139    0.5972    0.9479
      Minimum=    5.2656E-02  at reduced coord.    0.9861    0.0417    0.2500
   Integrated=    1.6000E+02
 ETOT  1  -536.83092556017    -5.368E+02 2.689E-01 1.423E+04
 scprqt: <Vxc>= -9.3352007E-01 hartree
 
 Simple mixing update:
  residual square of the potential:    8923.63100717550
 scfcv_core: previous iteration took 02:00 [minutes]
 
 ITER STEP NUMBER     2
 vtorho: nnsclo_now=2, note that nnsclo,dbl_nnsclo,istep=0 0 2
 Total charge density [el/Bohr^3]
      Maximum=    1.6764E+00  at reduced coord.    0.0139    0.5972    0.9479
      Minimum=    5.4789E-02  at reduced coord.    0.9861    0.0417    0.2500
   Integrated=    1.6000E+02
 ETOT  2  -537.48871089895    -6.578E-01 5.392E-02 1.633E+04
 scprqt: <Vxc>= -9.4063118E-01 hartree
 
 Pulay update with  1 previous iterations:
 mixing of old trial potential: alpha(m:m-4)=  0.493      0.507
 scfcv_core: previous iteration took 01:57 [minutes]
 
 ITER STEP NUMBER     3
 vtorho: nnsclo_now=1, note that nnsclo,dbl_nnsclo,istep=0 0 3
 Total charge density [el/Bohr^3]
      Maximum=    1.8438E+00  at reduced coord.    0.0000    0.5972    0.9479
      Minimum=    5.2646E-02  at reduced coord.    0.9861    0.0417    0.2500
   Integrated=    1.6000E+02
 ETOT  3  -538.05915728699    -5.704E-01 2.762E-02 6.664E+02
 scprqt: <Vxc>= -9.3870658E-01 hartree
 
 Pulay update with  2 previous iterations:
 mixing of old trial potential: alpha(m:m-4)=  0.646      0.224      0.130
 scfcv_core: previous iteration took 59.59 [s]
 
 ITER STEP NUMBER     4
 vtorho: nnsclo_now=1, note that nnsclo,dbl_nnsclo,istep=0 0 4
 Total charge density [el/Bohr^3]
      Maximum=    1.8061E+00  at reduced coord.    0.0000    0.5972    0.9479
      Minimum=    5.2979E-02  at reduced coord.    0.9861    0.0417    0.2500
   Integrated=    1.6000E+02
 ETOT  4  -538.08861937863    -2.946E-02 9.379E-03 1.036E+01
 scprqt: <Vxc>= -9.3871369E-01 hartree
 
 Pulay update with  3 previous iterations:
 mixing of old trial potential: alpha(m:m-4)=  0.623      0.247      0.856E-01  0.443E-01
 scfcv_core: previous iteration took 59.75 [s]
 
 ITER STEP NUMBER     5
 vtorho: nnsclo_now=1, note that nnsclo,dbl_nnsclo,istep=0 0 5
 Total charge density [el/Bohr^3]
      Maximum=    1.8105E+00  at reduced coord.    0.0000    0.5972    0.9479
      Minimum=    5.3073E-02  at reduced coord.    0.9861    0.0417    0.2500
   Integrated=    1.6000E+02
 ETOT  5  -538.08924020748    -6.208E-04 7.055E-03 6.294E-01
 scprqt: <Vxc>= -9.3866839E-01 hartree
 
 Pulay update with  4 previous iterations:
 mixing of old trial potential: alpha(m:m-4)=  0.970      0.140E-01  0.528E-02  0.876E-02  0.241E-02
 scfcv_core: previous iteration took 59.72 [s]
 
 ITER STEP NUMBER     6
 vtorho: nnsclo_now=1, note that nnsclo,dbl_nnsclo,istep=0 0 6
 Total charge density [el/Bohr^3]
      Maximum=    1.8094E+00  at reduced coord.    0.0000    0.5972    0.9479
      Minimum=    5.3088E-02  at reduced coord.    0.9861    0.0417    0.2500
   Integrated=    1.6000E+02
 ETOT  6  -538.08927850096    -3.829E-05 4.431E-03 2.828E-02
 scprqt: <Vxc>= -9.3867412E-01 hartree
 
 Pulay update with  5 previous iterations:
 mixing of old trial potential: alpha(m:m-4)=  0.638      0.384     -0.195E-01 -0.378E-02  0.114E-02
 scfcv_core: previous iteration took 59.77 [s]
 
 ITER STEP NUMBER     7
 vtorho: nnsclo_now=1, note that nnsclo,dbl_nnsclo,istep=0 0 7
 Total charge density [el/Bohr^3]
      Maximum=    1.8095E+00  at reduced coord.    0.0000    0.5972    0.9479
      Minimum=    5.3087E-02  at reduced coord.    0.9861    0.0417    0.2500
   Integrated=    1.6000E+02
 ETOT  7  -538.08928143980    -2.939E-06 4.160E-03 1.248E-03
 scprqt: <Vxc>= -9.3867356E-01 hartree
 
 Pulay update with  6 previous iterations:
 mixing of old trial potential: alpha(m:m-4)=  0.696      0.234      0.783E-01 -0.618E-02 -0.116E-02
 scfcv_core: previous iteration took 59.78 [s]
 
 ITER STEP NUMBER     8
 vtorho: nnsclo_now=1, note that nnsclo,dbl_nnsclo,istep=0 0 8
 Total charge density [el/Bohr^3]
      Maximum=    1.8095E+00  at reduced coord.    0.0000    0.5972    0.9479
      Minimum=    5.3088E-02  at reduced coord.    0.9861    0.0417    0.2500
   Integrated=    1.6000E+02
 ETOT  8  -538.08928172959    -2.898E-07 2.084E-03 1.164E-04
 scprqt: <Vxc>= -9.3867366E-01 hartree
 
 Pulay update with  7 previous iterations:
 mixing of old trial potential: alpha(m:m-4)=  0.772      0.194      0.323E-01  0.231E-02 -0.176E-03
 scfcv_core: previous iteration took 59.86 [s]
 
 ITER STEP NUMBER     9
 vtorho: nnsclo_now=1, note that nnsclo,dbl_nnsclo,istep=0 0 9
 Total charge density [el/Bohr^3]
      Maximum=    1.8095E+00  at reduced coord.    0.0000    0.5972    0.9479
      Minimum=    5.3087E-02  at reduced coord.    0.9861    0.0417    0.2500
   Integrated=    1.6000E+02
 ETOT  9  -538.08928176826    -3.867E-08 3.141E-03 2.726E-06
 scprqt: <Vxc>= -9.3867360E-01 hartree
 
 Pulay update with  7 previous iterations:
 mixing of old trial potential: alpha(m:m-4)=  0.798      0.173      0.292E-01  0.271E-02 -0.331E-02
 scfcv_core: previous iteration took 59.91 [s]
 
 ITER STEP NUMBER    10
 vtorho: nnsclo_now=1, note that nnsclo,dbl_nnsclo,istep=0 0 10
 Total charge density [el/Bohr^3]
      Maximum=    1.8095E+00  at reduced coord.    0.0000    0.5972    0.9479
      Minimum=    5.3087E-02  at reduced coord.    0.9861    0.0417    0.2500
   Integrated=    1.6000E+02
 ETOT 10  -538.08928177327    -5.007E-09 2.809E-03 2.466E-07
 scprqt: <Vxc>= -9.3867363E-01 hartree
 
 Pulay update with  7 previous iterations:
 mixing of old trial potential: alpha(m:m-4)=  0.734      0.254      0.830E-02  0.556E-02 -0.501E-03
 scfcv_core: previous iteration took 59.52 [s]
 
 ITER STEP NUMBER    11
 vtorho: nnsclo_now=1, note that nnsclo,dbl_nnsclo,istep=0 0 11
 Total charge density [el/Bohr^3]
      Maximum=    1.8095E+00  at reduced coord.    0.0000    0.5972    0.9479
      Minimum=    5.3087E-02  at reduced coord.    0.9861    0.0417    0.2500
   Integrated=    1.6000E+02
 ETOT 11  -538.08928177399    -7.193E-10 4.081E-03 4.558E-08
 scprqt: <Vxc>= -9.3867362E-01 hartree
 
 Pulay update with  7 previous iterations:
 mixing of old trial potential: alpha(m:m-4)=  0.834      0.180      0.276E-02 -0.152E-01 -0.557E-03
 scfcv_core: previous iteration took 59.85 [s]
 
 ITER STEP NUMBER    12
 vtorho: nnsclo_now=1, note that nnsclo,dbl_nnsclo,istep=0 0 12
 Total charge density [el/Bohr^3]
      Maximum=    1.8095E+00  at reduced coord.    0.0000    0.5972    0.9479
      Minimum=    5.3087E-02  at reduced coord.    0.9861    0.0417    0.2500
   Integrated=    1.6000E+02
 ETOT 12  -538.08928177410    -1.118E-10 3.104E-03 4.745E-09
 scprqt: <Vxc>= -9.3867363E-01 hartree
 
 At SCF step   12       vres2   =  4.75E-09 < tolvrs=  1.00E-08 =>converged.
--------------------------------------------------------------------------
MPI_ABORT was invoked on rank 1 in communicator MPI_COMM_WORLD 
with errorcode 14.

NOTE: invoking MPI_ABORT causes Open MPI to kill all MPI processes.
You may or may not see output from other processes, depending on
exactly when Open MPI kills them.
--------------------------------------------------------------------------
forrtl: No such file or directory
