--------------------------------------------------------------------------
[[4897,1],0]: A high-performance Open MPI point-to-point messaging module
was unable to find any relevant network interfaces:

Module: OpenFabrics (openib)
  Host: abipy

Another transport will be used instead, although this may result in
lower performance.
--------------------------------------------------------------------------
  ABINIT 8.10.3
  
  Give name for formatted input file: 
tspin_2.in
  Give name for formatted output file:
tspin_2.out
  Give root name for generic input files:
tspin_2i
  Give root name for generic output files:
tspin_2o
  Give root name for generic temporary files:
tspin_2

.Version 8.10.3 of ABINIT 
.(MPI version, prepared for a x86_64_linux_gnu5.4 computer) 

.Copyright (C) 1998-2018 ABINIT group . 
 ABINIT comes with ABSOLUTELY NO WARRANTY.
 It is free software, and you are welcome to redistribute it
 under certain conditions (GNU General Public License,
 see ~abinit/COPYING or http://www.gnu.org/copyleft/gpl.txt).

 ABINIT is a project of the Universite Catholique de Louvain,
 Corning Inc. and other collaborators, see ~abinit/doc/developers/contributors.txt .
 Please read https://docs.abinit.org/theory/acknowledgments for suggested
 acknowledgments of the ABINIT effort.
 For more information, see https://www.abinit.org .

.Starting date : Mon 28 Oct 2019.
- ( at 11h17 )
  

 ++++++++++++++++++++++++++++++++++++++++++++++++++++++++++++++++++++++++++++++

 === Build Information === 
  Version       : 8.10.3
  Build target  : x86_64_linux_gnu5.4
  Build date    : 20191016

 === Compiler Suite === 
  C compiler       : gnu5.4
  C++ compiler     : gnu5.4
  Fortran compiler : gnu5.4
  CFLAGS           :  -g -O2 -mtune=native -march=native
  CXXFLAGS         :  -g -O2 -mtune=native -march=native
  FCFLAGS          :  -g -ffree-line-length-none  -fopenmp
  FC_LDFLAGS       : 

 === Optimizations === 
  Debug level        : basic
  Optimization level : standard
  Architecture       : unknown_unknown

 === Multicore === 
  Parallel build : yes
  Parallel I/O   : yes
  openMP support : yes
  GPU support    : no

 === Connectors / Fallbacks === 
  Connectors on : yes
  Fallbacks on  : yes
  DFT flavor    : none
  FFT flavor    : fftw3
  LINALG flavor : atlas
  MATH flavor   : none
  TIMER flavor  : abinit
  TRIO flavor   : netcdf

 === Experimental features === 
  Bindings            : @enable_bindings@
  Exports             : no
  GW double-precision : no

 ++++++++++++++++++++++++++++++++++++++++++++++++++++++++++++++++++++++++++++++


 ++++++++++++++++++++++++++++++++++++++++++++++++++++++++++++++++++++++++++++++
 Default optimizations:
   -O2 -mtune=native -march=native


 Optimizations for 43_ptgroups:
   -O0


 ++++++++++++++++++++++++++++++++++++++++++++++++++++++++++++++++++++++++++++++


 ++++++++++++++++++++++++++++++++++++++++++++++++++++++++++++++++++++++++++++++
 CPP options activated during the build:

                    CC_GNU                   CXX_GNU                    FC_GNU
 
 HAVE_FC_ALLOCATABLE_DT...             HAVE_FC_ASYNC         HAVE_FC_BACKTRACE
 
  HAVE_FC_COMMAND_ARGUMENT      HAVE_FC_COMMAND_LINE        HAVE_FC_CONTIGUOUS
 
           HAVE_FC_CPUTIME              HAVE_FC_EXIT             HAVE_FC_FLUSH
 
             HAVE_FC_GAMMA            HAVE_FC_GETENV   HAVE_FC_IEEE_EXCEPTIONS
 
          HAVE_FC_INT_QUAD             HAVE_FC_IOMSG     HAVE_FC_ISO_C_BINDING
 
  HAVE_FC_ISO_FORTRAN_2008        HAVE_FC_LONG_LINES        HAVE_FC_MOVE_ALLOC
 
           HAVE_FC_PRIVATE         HAVE_FC_PROTECTED         HAVE_FC_STREAM_IO
 
            HAVE_FC_SYSTEM                  HAVE_FFT            HAVE_FFT_FFTW3
 
              HAVE_FFT_MPI           HAVE_FFT_SERIAL          HAVE_FORTRAN2003
 
        HAVE_LIBPAW_ABINIT      HAVE_LIBTETRA_ABINIT               HAVE_LINALG
 
        HAVE_LINALG_SERIAL                  HAVE_MPI                 HAVE_MPI2
 
       HAVE_MPI_IALLREDUCE        HAVE_MPI_IALLTOALL       HAVE_MPI_IALLTOALLV
 
        HAVE_MPI_INTEGER16               HAVE_MPI_IO HAVE_MPI_TYPE_CREATE_S...
 
               HAVE_NETCDF           HAVE_NETCDF_MPI         HAVE_OMP_COLLAPSE
 
               HAVE_OPENMP             HAVE_OS_LINUX         HAVE_TIMER_ABINIT
 
              USE_MACROAVE                                                      
 ++++++++++++++++++++++++++++++++++++++++++++++++++++++++++++++++++++++++++++++

- input  file    -> tspin_2.in
- output file    -> tspin_2.out
- root for input  files -> tspin_2i
- root for output files -> tspin_2o


--- !WARNING
src_file: m_nctk.F90
src_line: 572
message: |
    netcdf lib does not support MPI-IO and: NetCDF: Parallel operation on file opened for non-parallel access
...

  Asked to delete not existent file: __TMP_FILE__

--- !WARNING
src_file: m_nctk.F90
src_line: 592
message: |
    The netcdf library does not support parallel IO, see message above
    Abinit won't be able to produce files in parallel e.g. when paral_kgb==1 is used.
    Action: install a netcdf4+HDF5 library with MPI-IO support.
...

-instrng: 52 lines of input have been read from file tspin_2.in


 Please give name of formatted atomic psp file
 iofn2 : for atom type 1, psp file is ../../../../../Psps_for_tests/26fe.pspnc
  read the values zionpsp=  8.0 , pspcod=   1 , lmax=   2

 inpspheads: deduce mpsang = 3, n1xccc = 2501.
 invars1 : treat image number: 1

 symlatt : the Bravais lattice is tP (primitive tetragonal)
  xred   is defined in input file
 ingeo: takes atomic coordinates from input array xred

 symlatt : the Bravais lattice is tP (primitive tetragonal)
 Shubnikov space group type IV
 symspgr : spgroup=  47  Pm m m   (=D2h^1)
 symspgr : optical characteristics = uniaxial
 However, the axis has not been found. Sorry for this.
 ingeo: angdeg(1:3)=   90.00000000   90.00000000   90.00000000
 chkneu : initialized the occupation numbers for occopt=    3, spin-unpolarized or antiferromagnetic case :
  2.00  2.00  2.00  2.00  2.00  2.00  2.00  2.00  0.00  0.00  0.00  0.00
  0.00  0.00  0.00  0.00
npfft, npband, npspinor and npkpt:     1    1    1    2
mpi_setup: mkmem  undefined in the input file.Use default mkmem  = nkpt
 mpi_setup: With nkpt_me=9 and mkmem  = 18, ground state wf handled in core.
 Resetting mkmem  to nkpt_me to save memory space.
mpi_setup: mkqmem undefined in the input file.Use default mkqmem = nkpt
 mpi_setup: With nkpt_me=9 and mkqmem = 18, ground state wf handled in core.
 Resetting mkqmem to nkpt_me to save memory space.
mpi_setup: mk1mem undefined in the input file.Use default mk1mem = nkpt
 mpi_setup: With nkpt_me=9 and mk1mem = 18, ground state wf handled in core.
 Resetting mk1mem to nkpt_me to save memory space.
 For input ecut=  1.800000E+01 best grid ngfft=      18      18      27
       max ecut=  1.835257E+01

 ==== FFT mesh ====
  FFT mesh divisions ........................    18   18   27
  Augmented FFT divisions ...................    19   19   27
  FFT algorithm .............................   312
  FFT cache size ............................    16
 getmpw: optimal value of mpw= 530

 Magnetic group, Shubnikov type IV
 Fedorov space group Pm m m (# 47)
 Magnetic Bravais lattice tP_C (primitive tetrag., C-magnetic, #24)

 getdim_nloc : deduce lmnmax  =   8, lnmax  =   2,
                      lmnmaxso=   8, lnmaxso=   2.
memory : analysis of memory needs
================================================================================
 Values of the parameters that define the memory need of the present run
     intxc =       0    ionmov =       0      iscf =       7    lmnmax =       2
     lnmax =       2     mgfft =      27  mpssoang =       3    mqgrid =    3001
     natom =       2  nloc_mem =       1    nspden =       2   nspinor =       1
    nsppol =       1      nsym =      16    n1xccc =    2501    ntypat =       1
    occopt =       3   xclevel =       1
-    mband =          16        mffmem =           1         mkmem =           9
       mpw =         530          nfft =        8748          nkpt =          18
================================================================================
P This job should need less than                       6.612 Mbytes of memory.
  Rough estimation (10% accuracy) of disk space for files :
_ WF disk file :      2.331 Mbytes ; DEN or POT disk file :      0.069 Mbytes.
================================================================================

 Biggest array : cg(disk), with      1.1666 MBytes.
 memana : allocated an array of      1.167 Mbytes, for testing purposes.
 memana: allocated       6.612Mbytes, for testing purposes. 
 The job will continue.
--------------------------------------------------------------------------------
------------- Echo of variables that govern the present computation ------------
--------------------------------------------------------------------------------
-
- outvars: echo of selected default values                                      
-   iomode0 =  0 , fftalg0 =312 , wfoptalg0 =  0
-
- outvars: echo of global parameters not present in the input file              
-  max_nthreads =    1
-
 -outvars: echo values of preprocessed input variables --------
 
 These variables are accessible in NetCDF format (tspin_2o_OUT.nc)

            acell      6.6000000000E+00  6.6000000000E+00  6.6000000000E+00 Bohr
              amu      5.58470000E+01
             ecut      1.80000000E+01 Hartree
-          fftalg         312
              kpt      8.33333333E-02  8.33333333E-02  1.25000000E-01
                       2.50000000E-01  8.33333333E-02  1.25000000E-01
                       4.16666667E-01  8.33333333E-02  1.25000000E-01
                       8.33333333E-02  2.50000000E-01  1.25000000E-01
                       2.50000000E-01  2.50000000E-01  1.25000000E-01
                       4.16666667E-01  2.50000000E-01  1.25000000E-01
                       8.33333333E-02  4.16666667E-01  1.25000000E-01
                       2.50000000E-01  4.16666667E-01  1.25000000E-01
                       4.16666667E-01  4.16666667E-01  1.25000000E-01
                       8.33333333E-02  8.33333333E-02  3.75000000E-01
                       2.50000000E-01  8.33333333E-02  3.75000000E-01
                       4.16666667E-01  8.33333333E-02  3.75000000E-01
                       8.33333333E-02  2.50000000E-01  3.75000000E-01
                       2.50000000E-01  2.50000000E-01  3.75000000E-01
                       4.16666667E-01  2.50000000E-01  3.75000000E-01
                       8.33333333E-02  4.16666667E-01  3.75000000E-01
                       2.50000000E-01  4.16666667E-01  3.75000000E-01
                       4.16666667E-01  4.16666667E-01  3.75000000E-01
         kptrlatt        6    0    0      0    6    0      0    0    4
          kptrlen      2.64000000E+01
P           mkmem           9
            natom           2
            nband          16
            ngfft          18      18      27
             nkpt          18
           nspden           2
            nstep          70
             nsym          16
           ntypat           1
              occ      2.000000  2.000000  2.000000  2.000000  2.000000  2.000000
                       2.000000  2.000000  0.000000  0.000000  0.000000  0.000000
                       0.000000  0.000000  0.000000  0.000000
                       2.000000  2.000000  2.000000  2.000000  2.000000  2.000000
                       2.000000  2.000000  0.000000  0.000000  0.000000  0.000000
                       0.000000  0.000000  0.000000  0.000000
                       2.000000  2.000000  2.000000  2.000000  2.000000  2.000000
                       2.000000  2.000000  0.000000  0.000000  0.000000  0.000000
                       0.000000  0.000000  0.000000  0.000000
                       2.000000  2.000000  2.000000  2.000000  2.000000  2.000000
                       2.000000  2.000000  0.000000  0.000000  0.000000  0.000000
                       0.000000  0.000000  0.000000  0.000000
                       2.000000  2.000000  2.000000  2.000000  2.000000  2.000000
                       2.000000  2.000000  0.000000  0.000000  0.000000  0.000000
                       0.000000  0.000000  0.000000  0.000000
                       2.000000  2.000000  2.000000  2.000000  2.000000  2.000000
                       2.000000  2.000000  0.000000  0.000000  0.000000  0.000000
                       0.000000  0.000000  0.000000  0.000000
                       2.000000  2.000000  2.000000  2.000000  2.000000  2.000000
                       2.000000  2.000000  0.000000  0.000000  0.000000  0.000000
                       0.000000  0.000000  0.000000  0.000000
                       2.000000  2.000000  2.000000  2.000000  2.000000  2.000000
                       2.000000  2.000000  0.000000  0.000000  0.000000  0.000000
                       0.000000  0.000000  0.000000  0.000000
                       2.000000  2.000000  2.000000  2.000000  2.000000  2.000000
                       2.000000  2.000000  0.000000  0.000000  0.000000  0.000000
                       0.000000  0.000000  0.000000  0.000000
                       2.000000  2.000000  2.000000  2.000000  2.000000  2.000000
                       2.000000  2.000000  0.000000  0.000000  0.000000  0.000000
                       0.000000  0.000000  0.000000  0.000000
                       2.000000  2.000000  2.000000  2.000000  2.000000  2.000000
                       2.000000  2.000000  0.000000  0.000000  0.000000  0.000000
                       0.000000  0.000000  0.000000  0.000000
                       2.000000  2.000000  2.000000  2.000000  2.000000  2.000000
                       2.000000  2.000000  0.000000  0.000000  0.000000  0.000000
                       0.000000  0.000000  0.000000  0.000000
                       2.000000  2.000000  2.000000  2.000000  2.000000  2.000000
                       2.000000  2.000000  0.000000  0.000000  0.000000  0.000000
                       0.000000  0.000000  0.000000  0.000000
                       2.000000  2.000000  2.000000  2.000000  2.000000  2.000000
                       2.000000  2.000000  0.000000  0.000000  0.000000  0.000000
                       0.000000  0.000000  0.000000  0.000000
                       2.000000  2.000000  2.000000  2.000000  2.000000  2.000000
                       2.000000  2.000000  0.000000  0.000000  0.000000  0.000000
                       0.000000  0.000000  0.000000  0.000000
                       2.000000  2.000000  2.000000  2.000000  2.000000  2.000000
                       2.000000  2.000000  0.000000  0.000000  0.000000  0.000000
                       0.000000  0.000000  0.000000  0.000000
                       2.000000  2.000000  2.000000  2.000000  2.000000  2.000000
                       2.000000  2.000000  0.000000  0.000000  0.000000  0.000000
                       0.000000  0.000000  0.000000  0.000000
                       2.000000  2.000000  2.000000  2.000000  2.000000  2.000000
                       2.000000  2.000000  0.000000  0.000000  0.000000  0.000000
                       0.000000  0.000000  0.000000  0.000000
           occopt           3
           prtdos           1
            rprim      5.0000000000E-01 -5.0000000000E-01  0.0000000000E+00
                       5.0000000000E-01  5.0000000000E-01  0.0000000000E+00
                       0.0000000000E+00  0.0000000000E+00  1.0000000000E+00
           shiftk      5.00000000E-01  5.00000000E-01  5.00000000E-01
          spgroup          47
           spinat      0.0000000000E+00  0.0000000000E+00  4.0000000000E+00
                       0.0000000000E+00  0.0000000000E+00 -4.0000000000E+00
           symafm        1   -1    1   -1    1   -1    1   -1    1   -1
                         1   -1    1   -1    1   -1
           symrel      1  0  0   0  1  0   0  0  1       1  0  0   0  1  0   0  0  1
                      -1  0  0   0 -1  0   0  0 -1      -1  0  0   0 -1  0   0  0 -1
                      -1  0  0   0  1  0   0  0 -1      -1  0  0   0  1  0   0  0 -1
                       1  0  0   0 -1  0   0  0  1       1  0  0   0 -1  0   0  0  1
                      -1  0  0   0 -1  0   0  0  1      -1  0  0   0 -1  0   0  0  1
                       1  0  0   0  1  0   0  0 -1       1  0  0   0  1  0   0  0 -1
                       1  0  0   0 -1  0   0  0 -1       1  0  0   0 -1  0   0  0 -1
                      -1  0  0   0  1  0   0  0  1      -1  0  0   0  1  0   0  0  1
            tnons      0.0000000  0.0000000  0.0000000     0.5000000  0.0000000  0.5000000
                       0.0000000  0.0000000  0.0000000     0.5000000  0.0000000  0.5000000
                       0.0000000  0.0000000  0.0000000     0.5000000  0.0000000  0.5000000
                       0.0000000  0.0000000  0.0000000     0.5000000  0.0000000  0.5000000
                       0.0000000  0.0000000  0.0000000     0.5000000  0.0000000  0.5000000
                       0.0000000  0.0000000  0.0000000     0.5000000  0.0000000  0.5000000
                       0.0000000  0.0000000  0.0000000     0.5000000  0.0000000  0.5000000
                       0.0000000  0.0000000  0.0000000     0.5000000  0.0000000  0.5000000
           tolwfr      1.00000000E-07
            typat      1  1
              wtk        0.05556    0.05556    0.05556    0.05556    0.05556    0.05556
                         0.05556    0.05556    0.05556    0.05556    0.05556    0.05556
                         0.05556    0.05556    0.05556    0.05556    0.05556    0.05556
           xangst      0.0000000000E+00  0.0000000000E+00  0.0000000000E+00
                       8.7314239417E-01 -8.7314239417E-01  1.7462847883E+00
            xcart      0.0000000000E+00  0.0000000000E+00  0.0000000000E+00
                       1.6500000000E+00 -1.6500000000E+00  3.3000000000E+00
             xred      0.0000000000E+00  0.0000000000E+00  0.0000000000E+00
                       5.0000000000E-01  0.0000000000E+00  5.0000000000E-01
            znucl       26.00000

================================================================================

 chkinp: Checking input parameters for consistency.
 DATA TYPE INFORMATION: 
 REAL:      Data type name: REAL(DP) 
            Kind value:      8
            Precision:      15
            Smallest nonnegligible quantity relative to 1:  0.22204460E-15
            Smallest positive number:                       0.22250739-307
            Largest representable number:                   0.17976931+309
 INTEGER:   Data type name: INTEGER(default) 
            Kind value: 4
            Bit size:   32
            Largest representable number: 2147483647
 LOGICAL:   Data type name: LOGICAL 
            Kind value: 4
 CHARACTER: Data type name: CHARACTER             Kind value: 1

  ==== OpenMP parallelism is ON ====
- Max_threads:       1
- Num_threads:       1
- Num_procs:         2
- Dynamic:           F
- Nested:            F
 
  ==== Using MPI-2 specifications ==== 
  MPI-IO support is ON
  xmpi_tag_ub ................   2147483647
  xmpi_bsize_ch ..............            1
  xmpi_bsize_int .............            4
  xmpi_bsize_sp ..............            4
  xmpi_bsize_dp ..............            8
  xmpi_bsize_spc .............            8
  xmpi_bsize_dpc .............           16
  xmpio_bsize_frm ............            4
  xmpi_address_kind ..........            8
  xmpi_offset_kind ...........            8
  MPI_WTICK ..................    9.9999999999999995E-007

================================================================================
== DATASET  1 ==================================================================
-   nproc =    2


--- !COMMENT
src_file: m_xgScalapack.F90
src_line: 251
message: |
    xgScalapack in auto mode
...


 getdim_nloc : deduce lmnmax  =   8, lnmax  =   2,
                      lmnmaxso=   8, lnmaxso=   2.
 Exchange-correlation functional for the present dataset will be:
  LDA: new Teter (4/93) with spin-polarized option - ixc=1
 Citation for XC functional:
  S. Goedecker, M. Teter, J. Huetter, PRB 54, 1703 (1996)

 Unit cell volume ucvol=  1.4374800E+02 bohr^3
 Angles (23,13,12)=  9.00000000E+01  9.00000000E+01  9.00000000E+01 degrees

 getcut: wavevector=  0.0000  0.0000  0.0000  ngfft=  18  18  27
         ecut(hartree)=     18.000   => boxcut(ratio)=   2.01949
 kpgio: loop on k-points done in parallel
- pspini: atom type   1  psp file is ../../../../../Psps_for_tests/26fe.pspnc
- pspatm: opening atomic psp file    ../../../../../Psps_for_tests/26fe.pspnc
-  Troullier-Martins psp for element  Fe        Thu Oct 27 17:35:05 EDT 1994
- 26.00000   8.00000    940714                znucl, zion, pspdat
    1    1    2    0      2001   0.00000      pspcod,pspxc,lmax,lloc,mmax,r2well
    0   4.333  10.868    0   2.2918558        l,e99.0,e99.9,nproj,rcpsp
   0.00000000   0.00000000   0.00000000   0.00000000     rms, ekb1, ekb2, epsatm
    1   1.213   4.197    1   2.8345121        l,e99.0,e99.9,nproj,rcpsp
   0.00000000   0.00000000   0.00000000   0.00000000     rms, ekb1, ekb2, epsatm
    2  18.664  23.972    1   2.2918558        l,e99.0,e99.9,nproj,rcpsp
   0.00000000   0.00000000   0.00000000   0.00000000     rms, ekb1, ekb2, epsatm
    1.56404770202776    2.06158206779471    6.88331421535388   rchrg,fchrg,qchrg
  pspatm : epsatm=   62.03296659
         --- l  ekb(1:nproj) -->
             1    1.561134
             2   -8.115829
 pspatm: atomic psp has been read  and splines computed

   1.98505493E+03                                ecore*ucvol(ha*bohr**3)
 ==== Info on pseudopotentials ====
  Norm-conserving pseudopotentials
  Number of pseudopotentials ..    1
  Number of types of atoms   ..    1
  Scalar calculation (no spin-orbit term)
  Nonlocal part applied using Legendre polynomials
  Max number of non-local projectors over l and type   1
  Highest angular momentum +1 .......   3
  Max number of (l,n)   components ..   2
  Max number of (l,m,n) components ..   2

 Pseudo-Core Charge Info: 
   Number of radial points for pseudo-core charge .. 2501
   XC core-correction treatment (optnlxccc) ........    1
   Radius for pseudo-core charge for each type ..... 

  - Atom type    1 has pseudo-core radius ..  4.6921

 Info on the Q-grid used for form factors in spline form: 
   Number of q-points for radial functions ffspl ..   3001
   Number of q-points for vlspl ...................   3001
   vloc is computed in Reciprocal Space
   model core charge treated in real-space

  XC functional for type 1 is 1
  Pseudo valence available: no

 wfconv:    16 bands initialized randomly with npw=   530, for ikpt=     1
 wfconv:    16 bands initialized randomly with npw=   529, for ikpt=     2
 wfconv:    16 bands initialized randomly with npw=   525, for ikpt=     3
 wfconv:    16 bands initialized randomly with npw=   529, for ikpt=     4
 wfconv:    16 bands initialized randomly with npw=   528, for ikpt=     5
 wfconv:    16 bands initialized randomly with npw=   519, for ikpt=     6
 wfconv:    16 bands initialized randomly with npw=   525, for ikpt=     7
 wfconv:    16 bands initialized randomly with npw=   519, for ikpt=     8
 wfconv:    16 bands initialized randomly with npw=   517, for ikpt=     9
_setup2: Arith. and geom. avg. npw (full set) are     524.167     524.148
 initro: for itypat=  1, take decay length=      0.8000,
 initro: indeed, coreel=     18.0000, nval=  8 and densty=  0.0000E+00.

================================================================================

 getcut: wavevector=  0.0000  0.0000  0.0000  ngfft=  18  18  27
         ecut(hartree)=     18.000   => boxcut(ratio)=   2.01949

 ITER STEP NUMBER     1
 vtorho : nnsclo_now=2, note that nnsclo,dbl_nnsclo,istep=0 0 1
 newocc: new Fermi energy is      -0.653593 , with nelect=     16.000000
  Number of bissection calls =  48
 newocc : computed new occ. numbers for occopt= 3 , spin-unpolarized case.
 2.000 2.000 2.000 2.000 1.998 1.972 1.939 0.632 0.361 0.139 0.002 0.000
 0.000 0.000 0.000 0.000
 2.000 2.000 2.000 2.000 1.999 1.963 1.727 1.655 1.000 0.280 0.000 0.000
 0.000 0.000 0.000 0.000
 2.000 2.000 2.000 2.000 1.999 1.981 1.947 1.186 0.939 0.683 0.000 0.000
 0.000 0.000 0.000 0.000
 2.000 2.000 2.000 2.000 1.999 1.890 1.742 1.178 0.719 0.113 0.000 0.000
 0.000 0.000 0.000 0.000
 2.000 2.000 2.000 2.000 2.000 1.871 1.667 1.494 1.247 0.946 0.000 0.000
 0.000 0.000 0.000 0.000
 2.000 2.000 2.000 2.000 1.998 1.944 1.807 1.470 0.890 0.263 0.000 0.000
 0.000 0.000 0.000 0.000
 2.000 2.000 2.000 2.000 2.000 1.922 1.668 1.009 0.155 0.001 0.000 0.000
 0.000 0.000 0.000 0.000
 2.000 2.000 2.000 2.000 1.999 1.728 1.578 1.221 0.809 0.024 0.000 0.000
 0.000 0.000 0.000 0.000
 2.000 2.000 2.000 2.000 1.981 1.922 1.833 1.424 0.926 0.004 0.000 0.000
 0.000 0.000 0.000 0.000
 2.000 2.000 2.000 2.000 1.998 1.988 1.936 1.680 1.029 0.398 0.000 0.000
 0.000 0.000 0.000 0.000
 2.000 2.000 2.000 2.000 1.999 1.964 1.809 1.618 0.970 0.382 0.000 0.000
 0.000 0.000 0.000 0.000
 2.000 2.000 2.000 2.000 2.000 1.870 1.515 0.583 0.294 0.127 0.000 0.000
 0.000 0.000 0.000 0.000
 2.000 2.000 2.000 2.000 1.999 1.979 1.874 1.644 1.383 0.607 0.000 0.000
 0.000 0.000 0.000 0.000
 2.000 2.000 2.000 2.000 2.000 1.863 1.644 1.503 1.021 0.695 0.000 0.000
 0.000 0.000 0.000 0.000
 2.000 2.000 2.000 2.000 1.997 1.482 1.222 0.765 0.260 0.005 0.000 0.000
 0.000 0.000 0.000 0.000
 2.000 2.000 2.000 2.000 2.000 1.975 1.912 1.700 1.055 0.442 0.000 0.000
 0.000 0.000 0.000 0.000
 2.000 2.000 2.000 2.000 1.999 1.777 1.534 1.443 1.411 0.125 0.000 0.000
 0.000 0.000 0.000 0.000
 2.000 2.000 2.000 2.000 1.973 1.815 1.688 0.969 0.222 0.012 0.000 0.000
 0.000 0.000 0.000 0.000
mkrho: echo density (plane-wave part only)
 Total charge density [el/Bohr^3]
      Maximum=    9.7508E-01  at reduced coord.    0.5000    0.0000    0.6296
      Minimum=    4.5072E-04  at reduced coord.    0.0000    0.0000    0.0000
   Integrated=    1.6000E+01
 Spin up density      [el/Bohr^3]
      Maximum=    5.7091E-01  at reduced coord.    0.8333    0.9444    0.0000
      Minimum=    2.4445E-04  at reduced coord.    0.0000    0.0000    0.0000
   Integrated=    8.0000E+00
 Spin down density    [el/Bohr^3]
      Maximum=    5.6888E-01  at reduced coord.    0.6667    0.9444    0.5185
      Minimum=    2.0627E-04  at reduced coord.    0.0000    0.0000    0.0000
   Integrated=    8.0000E+00
 Magnetization (spin up - spin down) [el/Bohr^3]
      Maximum=    2.2022E-01  at reduced coord.    0.8889    0.8889    0.0000
      Minimum=   -2.1970E-01  at reduced coord.    0.3889    0.1111    0.4815
   Integrated=    0.0000E+00
 Relative magnetization (=zeta, between -1 and 1)
      Maximum=    2.6341E-01  at reduced coord.    0.7778    0.7222    0.0000
      Minimum=   -2.6253E-01  at reduced coord.    0.2778    0.2778    0.4815
 Total charge density [el/Bohr^3]
      Maximum=    9.7508E-01  at reduced coord.    0.5000    0.0000    0.6296
      Minimum=    4.5072E-04  at reduced coord.    0.0000    0.0000    0.0000
   Integrated=    1.6000E+01
 Spin up density      [el/Bohr^3]
      Maximum=    5.7091E-01  at reduced coord.    0.8333    0.9444    0.0000
      Minimum=    2.4445E-04  at reduced coord.    0.0000    0.0000    0.0000
   Integrated=    8.0000E+00
 Spin down density    [el/Bohr^3]
      Maximum=    5.6888E-01  at reduced coord.    0.6667    0.9444    0.5185
      Minimum=    2.0627E-04  at reduced coord.    0.0000    0.0000    0.0000
   Integrated=    8.0000E+00
 Magnetization (spin up - spin down) [el/Bohr^3]
      Maximum=    2.2022E-01  at reduced coord.    0.8889    0.8889    0.0000
      Minimum=   -2.1970E-01  at reduced coord.    0.3889    0.1111    0.4815
   Integrated=    0.0000E+00
 Relative magnetization (=zeta, between -1 and 1)
      Maximum=    2.6341E-01  at reduced coord.    0.7778    0.7222    0.0000
      Minimum=   -2.6253E-01  at reduced coord.    0.2778    0.2778    0.4815
  rhotov : is_hybrid_ncpp= F
  rhotov : n3xccc=        8748
 ETOT  1  -47.095666027187    -4.710E+01 2.548E-01 3.590E+03
 scprqt: <Vxc>= -4.5140140E-01 hartree

Simple mixing update:
  residual square of the potential :   2013.1096900577236
 scfcv_core: previous iteration took 01 [s]

 ITER STEP NUMBER     2
 vtorho : nnsclo_now=2, note that nnsclo,dbl_nnsclo,istep=0 0 2
 newocc: new Fermi energy is      -0.006269 , with nelect=     16.000000
  Number of bissection calls =  47
 newocc : computed new occ. numbers for occopt= 3 , spin-unpolarized case.
 2.000 2.000 2.000 2.000 2.000 2.000 1.991 1.756 0.195 0.002 0.000 0.000
 0.000 0.000 0.000 0.000
 2.000 2.000 2.000 2.000 2.000 2.000 1.997 1.980 0.140 0.006 0.000 0.000
 0.000 0.000 0.000 0.000
 2.000 2.000 2.000 2.000 2.000 2.000 1.999 1.985 0.460 0.007 0.001 0.000
 0.000 0.000 0.000 0.000
 2.000 2.000 2.000 2.000 2.000 1.996 1.988 0.997 0.107 0.015 0.002 0.000
 0.000 0.000 0.000 0.000
 2.000 2.000 2.000 2.000 2.000 2.000 1.988 1.967 1.280 0.012 0.003 0.000
 0.000 0.000 0.000 0.000
 2.000 2.000 2.000 2.000 2.000 2.000 1.997 1.976 1.838 0.382 0.000 0.000
 0.000 0.000 0.000 0.000
 2.000 2.000 2.000 2.000 2.000 2.000 0.138 0.110 0.027 0.012 0.004 0.000
 0.000 0.000 0.000 0.000
 2.000 2.000 2.000 2.000 2.000 2.000 1.968 0.520 0.131 0.002 0.001 0.000
 0.000 0.000 0.000 0.000
 2.000 2.000 2.000 2.000 2.000 2.000 1.998 1.975 0.136 0.002 0.000 0.000
 0.000 0.000 0.000 0.000
 2.000 2.000 2.000 2.000 2.000 2.000 1.994 1.772 1.608 0.058 0.014 0.000
 0.000 0.000 0.000 0.000
 2.000 2.000 2.000 2.000 2.000 2.000 1.999 1.996 0.018 0.012 0.000 0.000
 0.000 0.000 0.000 0.000
 2.000 2.000 2.000 2.000 2.000 2.000 2.000 1.999 0.002 0.002 0.000 0.000
 0.000 0.000 0.000 0.000
 2.000 2.000 2.000 2.000 2.000 1.999 1.992 1.896 1.291 0.363 0.019 0.002
 0.000 0.000 0.000 0.000
 2.000 2.000 2.000 2.000 2.000 2.000 2.000 1.976 0.389 0.011 0.003 0.000
 0.000 0.000 0.000 0.000
 2.000 2.000 2.000 2.000 2.000 2.000 1.998 1.995 0.076 0.006 0.000 0.000
 0.000 0.000 0.000 0.000
 2.000 2.000 2.000 2.000 1.999 1.999 1.997 0.881 0.372 0.022 0.012 0.001
 0.000 0.000 0.000 0.000
 2.000 2.000 2.000 2.000 2.000 2.000 1.999 1.073 0.063 0.009 0.003 0.000
 0.000 0.000 0.000 0.000
 2.000 2.000 2.000 2.000 1.999 1.999 1.981 1.730 0.263 0.017 0.000 0.000
 0.000 0.000 0.000 0.000
mkrho: echo density (plane-wave part only)
 Total charge density [el/Bohr^3]
      Maximum=    4.7703E-01  at reduced coord.    0.6111    0.0000    0.5926
      Minimum=    1.5348E-03  at reduced coord.    0.0000    0.0000    0.0000
   Integrated=    1.6000E+01
 Spin up density      [el/Bohr^3]
      Maximum=    2.9695E-01  at reduced coord.    0.8889    0.8889    0.9259
      Minimum=    8.1243E-04  at reduced coord.    0.0000    0.0000    0.0000
   Integrated=    8.0000E+00
 Spin down density    [el/Bohr^3]
      Maximum=    3.0073E-01  at reduced coord.    0.6111    0.8889    0.5556
      Minimum=    7.2235E-04  at reduced coord.    0.0000    0.0000    0.0000
   Integrated=    8.0000E+00
 Magnetization (spin up - spin down) [el/Bohr^3]
      Maximum=    1.6773E-01  at reduced coord.    0.8889    0.8889    0.9630
      Minimum=   -1.6669E-01  at reduced coord.    0.3889    0.1111    0.4815
   Integrated=    0.0000E+00
 Relative magnetization (=zeta, between -1 and 1)
      Maximum=    4.1727E-01  at reduced coord.    0.8889    0.8889    0.0000
      Minimum=   -4.1235E-01  at reduced coord.    0.3889    0.1111    0.4815
 Total charge density [el/Bohr^3]
      Maximum=    4.7703E-01  at reduced coord.    0.6111    0.0000    0.5926
      Minimum=    1.5348E-03  at reduced coord.    0.0000    0.0000    0.0000
   Integrated=    1.6000E+01
 Spin up density      [el/Bohr^3]
      Maximum=    2.9695E-01  at reduced coord.    0.8889    0.8889    0.9259
      Minimum=    8.1243E-04  at reduced coord.    0.0000    0.0000    0.0000
   Integrated=    8.0000E+00
 Spin down density    [el/Bohr^3]
      Maximum=    3.0073E-01  at reduced coord.    0.6111    0.8889    0.5556
      Minimum=    7.2235E-04  at reduced coord.    0.0000    0.0000    0.0000
   Integrated=    8.0000E+00
 Magnetization (spin up - spin down) [el/Bohr^3]
      Maximum=    1.6773E-01  at reduced coord.    0.8889    0.8889    0.9630
      Minimum=   -1.6669E-01  at reduced coord.    0.3889    0.1111    0.4815
   Integrated=    0.0000E+00
 Relative magnetization (=zeta, between -1 and 1)
      Maximum=    4.1727E-01  at reduced coord.    0.8889    0.8889    0.0000
      Minimum=   -4.1235E-01  at reduced coord.    0.3889    0.1111    0.4815
  rhotov : is_hybrid_ncpp= F
  rhotov : n3xccc=        8748
 ETOT  2  -48.105000123353    -1.009E+00 1.063E-02 1.768E+03
 scprqt: <Vxc>= -5.6924314E-01 hartree

 Pulay update with  1 previous iterations:
 mixing of old trial potential : alpha(m:m-4)=  0.586      0.414
 scfcv_core: previous iteration took 00 [s]

 ITER STEP NUMBER     3
 vtorho : nnsclo_now=1, note that nnsclo,dbl_nnsclo,istep=0 0 3
 newocc: new Fermi energy is      -0.322193 , with nelect=     16.000000
  Number of bissection calls =  49
 newocc : computed new occ. numbers for occopt= 3 , spin-unpolarized case.
 2.000 2.000 2.000 2.000 2.000 1.997 1.977 1.666 0.073 0.031 0.011 0.000
 0.000 0.000 0.000 0.000
 2.000 2.000 2.000 2.000 2.000 1.998 1.993 1.970 0.495 0.255 0.019 0.000
 0.000 0.000 0.000 0.000
 2.000 2.000 2.000 2.000 2.000 1.998 1.998 1.993 0.893 0.146 0.007 0.000
 0.000 0.000 0.000 0.000
 2.000 2.000 2.000 2.000 2.000 1.997 1.744 1.486 0.173 0.090 0.005 0.000
 0.000 0.000 0.000 0.000
 2.000 2.000 2.000 2.000 2.000 1.999 1.913 1.511 0.879 0.292 0.143 0.000
 0.000 0.000 0.000 0.000
 2.000 2.000 2.000 2.000 1.999 1.996 1.988 1.667 1.445 0.736 0.001 0.000
 0.000 0.000 0.000 0.000
 2.000 2.000 2.000 2.000 2.000 1.999 1.502 0.399 0.198 0.011 0.002 0.000
 0.000 0.000 0.000 0.000
 2.000 2.000 2.000 2.000 2.000 1.999 1.625 0.929 0.175 0.028 0.001 0.000
 0.000 0.000 0.000 0.000
 2.000 2.000 2.000 2.000 1.999 1.992 1.970 1.788 0.523 0.003 0.000 0.000
 0.000 0.000 0.000 0.000
 2.000 2.000 2.000 2.000 2.000 1.998 1.994 1.970 1.820 0.316 0.086 0.022
 0.000 0.000 0.000 0.000
 2.000 2.000 2.000 2.000 2.000 1.999 1.998 1.996 0.432 0.183 0.021 0.000
 0.000 0.000 0.000 0.000
 2.000 2.000 2.000 2.000 2.000 1.998 1.975 1.746 0.056 0.038 0.021 0.000
 0.000 0.000 0.000 0.000
 2.000 2.000 2.000 2.000 2.000 1.996 1.992 1.838 1.255 0.440 0.163 0.005
 0.000 0.000 0.000 0.000
 2.000 2.000 2.000 2.000 2.000 1.996 1.989 1.570 0.733 0.280 0.099 0.000
 0.000 0.000 0.000 0.000
 2.000 2.000 2.000 2.000 1.999 1.587 1.499 1.040 0.148 0.026 0.006 0.000
 0.000 0.000 0.000 0.000
 2.000 2.000 2.000 2.000 2.000 1.996 1.987 1.514 0.597 0.052 0.002 0.000
 0.000 0.000 0.000 0.000
 2.000 2.000 2.000 2.000 2.000 1.955 1.944 0.872 0.246 0.010 0.000 0.000
 0.000 0.000 0.000 0.000
 2.000 2.000 2.000 2.000 1.864 1.577 1.117 0.191 0.015 0.003 0.000 0.000
 0.000 0.000 0.000 0.000
mkrho: echo density (plane-wave part only)
 Total charge density [el/Bohr^3]
      Maximum=    6.9529E-01  at reduced coord.    0.6111    0.0000    0.5926
      Minimum=    1.6308E-03  at reduced coord.    0.0000    0.0000    0.0000
   Integrated=    1.6000E+01
 Spin up density      [el/Bohr^3]
      Maximum=    4.2352E-01  at reduced coord.    0.8889    0.8889    0.9630
      Minimum=    8.7947E-04  at reduced coord.    0.0000    0.0000    0.0000
   Integrated=    8.0000E+00
 Spin down density    [el/Bohr^3]
      Maximum=    4.2866E-01  at reduced coord.    0.6111    0.8889    0.5556
      Minimum=    7.5133E-04  at reduced coord.    0.0000    0.0000    0.0000
   Integrated=    8.0000E+00
 Magnetization (spin up - spin down) [el/Bohr^3]
      Maximum=    2.2500E-01  at reduced coord.    0.8889    0.8889    0.0000
      Minimum=   -2.2528E-01  at reduced coord.    0.3889    0.1111    0.4815
   Integrated=    0.0000E+00
 Relative magnetization (=zeta, between -1 and 1)
      Maximum=    3.7711E-01  at reduced coord.    0.8889    0.8889    0.0000
      Minimum=   -3.7281E-01  at reduced coord.    0.3889    0.1111    0.4815
 Total charge density [el/Bohr^3]
      Maximum=    6.9529E-01  at reduced coord.    0.6111    0.0000    0.5926
      Minimum=    1.6308E-03  at reduced coord.    0.0000    0.0000    0.0000
   Integrated=    1.6000E+01
 Spin up density      [el/Bohr^3]
      Maximum=    4.2352E-01  at reduced coord.    0.8889    0.8889    0.9630
      Minimum=    8.7947E-04  at reduced coord.    0.0000    0.0000    0.0000
   Integrated=    8.0000E+00
 Spin down density    [el/Bohr^3]
      Maximum=    4.2866E-01  at reduced coord.    0.6111    0.8889    0.5556
      Minimum=    7.5133E-04  at reduced coord.    0.0000    0.0000    0.0000
   Integrated=    8.0000E+00
 Magnetization (spin up - spin down) [el/Bohr^3]
      Maximum=    2.2500E-01  at reduced coord.    0.8889    0.8889    0.0000
      Minimum=   -2.2528E-01  at reduced coord.    0.3889    0.1111    0.4815
   Integrated=    0.0000E+00
 Relative magnetization (=zeta, between -1 and 1)
      Maximum=    3.7711E-01  at reduced coord.    0.8889    0.8889    0.0000
      Minimum=   -3.7281E-01  at reduced coord.    0.3889    0.1111    0.4815
  rhotov : is_hybrid_ncpp= F
  rhotov : n3xccc=        8748
 ETOT  3  -49.230914213354    -1.126E+00 2.833E-02 2.606E+01
 scprqt: <Vxc>= -5.3102678E-01 hartree

 Pulay update with  2 previous iterations:
 mixing of old trial potential : alpha(m:m-4)=  0.533      0.296      0.171
 scfcv_core: previous iteration took 00 [s]

 ITER STEP NUMBER     4
 vtorho : nnsclo_now=1, note that nnsclo,dbl_nnsclo,istep=0 0 4
 newocc: new Fermi energy is      -0.274130 , with nelect=     16.000000
  Number of bissection calls =  48
 newocc : computed new occ. numbers for occopt= 3 , spin-unpolarized case.
 2.000 2.000 2.000 2.000 2.000 1.998 1.969 1.614 0.087 0.030 0.010 0.000
 0.000 0.000 0.000 0.000
 2.000 2.000 2.000 2.000 2.000 1.998 1.993 1.974 0.437 0.233 0.018 0.000
 0.000 0.000 0.000 0.000
 2.000 2.000 2.000 2.000 2.000 1.998 1.998 1.993 0.870 0.148 0.006 0.000
 0.000 0.000 0.000 0.000
 2.000 2.000 2.000 2.000 2.000 1.996 1.780 1.419 0.181 0.081 0.004 0.000
 0.000 0.000 0.000 0.000
 2.000 2.000 2.000 2.000 2.000 1.999 1.917 1.547 0.918 0.269 0.132 0.000
 0.000 0.000 0.000 0.000
 2.000 2.000 2.000 2.000 1.999 1.996 1.988 1.635 1.566 0.798 0.001 0.000
 0.000 0.000 0.000 0.000
 2.000 2.000 2.000 2.000 2.000 1.999 1.425 0.384 0.210 0.010 0.001 0.000
 0.000 0.000 0.000 0.000
 2.000 2.000 2.000 2.000 2.000 1.999 1.608 0.962 0.137 0.027 0.002 0.000
 0.000 0.000 0.000 0.000
 2.000 2.000 2.000 2.000 1.999 1.992 1.970 1.826 0.371 0.003 0.000 0.000
 0.000 0.000 0.000 0.000
 2.000 2.000 2.000 2.000 2.000 1.998 1.995 1.961 1.826 0.325 0.086 0.019
 0.000 0.000 0.000 0.000
 2.000 2.000 2.000 2.000 2.000 1.999 1.998 1.996 0.385 0.177 0.019 0.000
 0.000 0.000 0.000 0.000
 2.000 2.000 2.000 2.000 2.000 1.999 1.981 1.851 0.048 0.034 0.020 0.000
 0.000 0.000 0.000 0.000
 2.000 2.000 2.000 2.000 2.000 1.995 1.990 1.855 1.357 0.450 0.151 0.006
 0.000 0.000 0.000 0.000
 2.000 2.000 2.000 2.000 2.000 1.996 1.991 1.695 0.726 0.261 0.095 0.000
 0.000 0.000 0.000 0.000
 2.000 2.000 2.000 2.000 1.999 1.704 1.499 1.085 0.143 0.028 0.007 0.000
 0.000 0.000 0.000 0.000
 2.000 2.000 2.000 2.000 2.000 1.996 1.985 1.511 0.582 0.044 0.003 0.000
 0.000 0.000 0.000 0.000
 2.000 2.000 2.000 2.000 2.000 1.961 1.949 0.861 0.214 0.009 0.000 0.000
 0.000 0.000 0.000 0.000
 2.000 2.000 2.000 2.000 1.869 1.431 1.122 0.179 0.013 0.003 0.000 0.000
 0.000 0.000 0.000 0.000
mkrho: echo density (plane-wave part only)
 Total charge density [el/Bohr^3]
      Maximum=    6.8330E-01  at reduced coord.    0.6111    0.0000    0.5926
      Minimum=    1.6423E-03  at reduced coord.    0.0000    0.0000    0.0000
   Integrated=    1.6000E+01
 Spin up density      [el/Bohr^3]
      Maximum=    4.1652E-01  at reduced coord.    0.8889    0.8889    0.9630
      Minimum=    8.7450E-04  at reduced coord.    0.0000    0.0000    0.0000
   Integrated=    8.0000E+00
 Spin down density    [el/Bohr^3]
      Maximum=    4.2190E-01  at reduced coord.    0.6111    0.8889    0.5556
      Minimum=    7.6783E-04  at reduced coord.    0.0000    0.0000    0.0000
   Integrated=    8.0000E+00
 Magnetization (spin up - spin down) [el/Bohr^3]
      Maximum=    2.2229E-01  at reduced coord.    0.8889    0.8889    0.0000
      Minimum=   -2.2251E-01  at reduced coord.    0.3889    0.1111    0.4815
   Integrated=    0.0000E+00
 Relative magnetization (=zeta, between -1 and 1)
      Maximum=    3.8004E-01  at reduced coord.    0.8889    0.8889    0.0000
      Minimum=   -3.7540E-01  at reduced coord.    0.3889    0.1111    0.4815
 Total charge density [el/Bohr^3]
      Maximum=    6.8330E-01  at reduced coord.    0.6111    0.0000    0.5926
      Minimum=    1.6423E-03  at reduced coord.    0.0000    0.0000    0.0000
   Integrated=    1.6000E+01
 Spin up density      [el/Bohr^3]
      Maximum=    4.1652E-01  at reduced coord.    0.8889    0.8889    0.9630
      Minimum=    8.7450E-04  at reduced coord.    0.0000    0.0000    0.0000
   Integrated=    8.0000E+00
 Spin down density    [el/Bohr^3]
      Maximum=    4.2190E-01  at reduced coord.    0.6111    0.8889    0.5556
      Minimum=    7.6783E-04  at reduced coord.    0.0000    0.0000    0.0000
   Integrated=    8.0000E+00
 Magnetization (spin up - spin down) [el/Bohr^3]
      Maximum=    2.2229E-01  at reduced coord.    0.8889    0.8889    0.0000
      Minimum=   -2.2251E-01  at reduced coord.    0.3889    0.1111    0.4815
   Integrated=    0.0000E+00
 Relative magnetization (=zeta, between -1 and 1)
      Maximum=    3.8004E-01  at reduced coord.    0.8889    0.8889    0.0000
      Minimum=   -3.7540E-01  at reduced coord.    0.3889    0.1111    0.4815
  rhotov : is_hybrid_ncpp= F
  rhotov : n3xccc=        8748
 ETOT  4  -49.242830451296    -1.192E-02 3.409E-03 5.814E+00
 scprqt: <Vxc>= -5.3359221E-01 hartree

 Pulay update with  3 previous iterations:
 mixing of old trial potential : alpha(m:m-4)=   2.16     -0.968     -0.112     -0.768E-01
 scfcv_core: previous iteration took 00 [s]

 ITER STEP NUMBER     5
 vtorho : nnsclo_now=1, note that nnsclo,dbl_nnsclo,istep=0 0 5
 newocc: new Fermi energy is      -0.267021 , with nelect=     16.000000
  Number of bissection calls =  46
 newocc : computed new occ. numbers for occopt= 3 , spin-unpolarized case.
 2.000 2.000 2.000 2.000 2.000 1.998 1.946 1.586 0.105 0.034 0.010 0.000
 0.000 0.000 0.000 0.000
 2.000 2.000 2.000 2.000 2.000 1.998 1.989 1.975 0.449 0.244 0.017 0.000
 0.000 0.000 0.000 0.000
 2.000 2.000 2.000 2.000 2.000 1.999 1.997 1.991 0.932 0.148 0.006 0.000
 0.000 0.000 0.000 0.000
 2.000 2.000 2.000 2.000 2.000 1.994 1.794 1.383 0.174 0.083 0.004 0.000
 0.000 0.000 0.000 0.000
 2.000 2.000 2.000 2.000 2.000 1.998 1.923 1.558 1.027 0.257 0.129 0.000
 0.000 0.000 0.000 0.000
 2.000 2.000 2.000 2.000 1.999 1.996 1.987 1.706 1.584 0.871 0.001 0.000
 0.000 0.000 0.000 0.000
 2.000 2.000 2.000 2.000 2.000 1.999 1.385 0.390 0.206 0.008 0.001 0.000
 0.000 0.000 0.000 0.000
 2.000 2.000 2.000 2.000 2.000 1.999 1.602 0.933 0.118 0.021 0.003 0.000
 0.000 0.000 0.000 0.000
 2.000 2.000 2.000 2.000 1.999 1.990 1.972 1.852 0.183 0.004 0.000 0.000
 0.000 0.000 0.000 0.000
 2.000 2.000 2.000 2.000 2.000 1.997 1.992 1.932 1.836 0.322 0.089 0.021
 0.000 0.000 0.000 0.000
 2.000 2.000 2.000 2.000 2.000 1.999 1.998 1.994 0.350 0.180 0.018 0.000
 0.000 0.000 0.000 0.000
 2.000 2.000 2.000 2.000 2.000 1.999 1.983 1.914 0.042 0.033 0.018 0.000
 0.000 0.000 0.000 0.000
 2.000 2.000 2.000 2.000 2.000 1.994 1.984 1.869 1.436 0.430 0.174 0.006
 0.000 0.000 0.000 0.000
 2.000 2.000 2.000 2.000 2.000 1.995 1.993 1.793 0.758 0.252 0.085 0.000
 0.000 0.000 0.000 0.000
 2.000 2.000 2.000 2.000 1.997 1.846 1.444 1.050 0.133 0.033 0.009 0.000
 0.000 0.000 0.000 0.000
 2.000 2.000 2.000 2.000 1.999 1.994 1.979 1.530 0.672 0.033 0.004 0.000
 0.000 0.000 0.000 0.000
 2.000 2.000 2.000 2.000 1.999 1.976 1.949 0.850 0.179 0.006 0.001 0.000
 0.000 0.000 0.000 0.000
 2.000 2.000 2.000 2.000 1.862 1.219 1.029 0.149 0.012 0.004 0.000 0.000
 0.000 0.000 0.000 0.000
mkrho: echo density (plane-wave part only)
 Total charge density [el/Bohr^3]
      Maximum=    6.7603E-01  at reduced coord.    0.6111    0.0000    0.5926
      Minimum=    1.6349E-03  at reduced coord.    0.0000    0.0000    0.0000
   Integrated=    1.6000E+01
 Spin up density      [el/Bohr^3]
      Maximum=    4.0563E-01  at reduced coord.    0.8889    0.8889    0.9630
      Minimum=    8.5849E-04  at reduced coord.    0.0000    0.0000    0.0000
   Integrated=    8.0000E+00
 Spin down density    [el/Bohr^3]
      Maximum=    4.1072E-01  at reduced coord.    0.6111    0.8889    0.5556
      Minimum=    7.7645E-04  at reduced coord.    0.0000    0.0000    0.0000
   Integrated=    8.0000E+00
 Magnetization (spin up - spin down) [el/Bohr^3]
      Maximum=    2.0715E-01  at reduced coord.    0.8889    0.8889    0.0000
      Minimum=   -2.0724E-01  at reduced coord.    0.3889    0.1111    0.4815
   Integrated=    0.0000E+00
 Relative magnetization (=zeta, between -1 and 1)
      Maximum=    3.5767E-01  at reduced coord.    0.8889    0.8889    0.0000
      Minimum=   -3.5314E-01  at reduced coord.    0.3889    0.1111    0.4815
 Total charge density [el/Bohr^3]
      Maximum=    6.7603E-01  at reduced coord.    0.6111    0.0000    0.5926
      Minimum=    1.6349E-03  at reduced coord.    0.0000    0.0000    0.0000
   Integrated=    1.6000E+01
 Spin up density      [el/Bohr^3]
      Maximum=    4.0563E-01  at reduced coord.    0.8889    0.8889    0.9630
      Minimum=    8.5849E-04  at reduced coord.    0.0000    0.0000    0.0000
   Integrated=    8.0000E+00
 Spin down density    [el/Bohr^3]
      Maximum=    4.1072E-01  at reduced coord.    0.6111    0.8889    0.5556
      Minimum=    7.7645E-04  at reduced coord.    0.0000    0.0000    0.0000
   Integrated=    8.0000E+00
 Magnetization (spin up - spin down) [el/Bohr^3]
      Maximum=    2.0715E-01  at reduced coord.    0.8889    0.8889    0.0000
      Minimum=   -2.0724E-01  at reduced coord.    0.3889    0.1111    0.4815
   Integrated=    0.0000E+00
 Relative magnetization (=zeta, between -1 and 1)
      Maximum=    3.5767E-01  at reduced coord.    0.8889    0.8889    0.0000
      Minimum=   -3.5314E-01  at reduced coord.    0.3889    0.1111    0.4815
  rhotov : is_hybrid_ncpp= F
  rhotov : n3xccc=        8748
 ETOT  5  -49.246457711477    -3.627E-03 8.182E-04 5.606E-01
 scprqt: <Vxc>= -5.3607064E-01 hartree

 Pulay update with  4 previous iterations:
 mixing of old trial potential : alpha(m:m-4)=  0.652      0.588     -0.131     -0.617E-01 -0.470E-01
 scfcv_core: previous iteration took 00 [s]

 ITER STEP NUMBER     6
 vtorho : nnsclo_now=1, note that nnsclo,dbl_nnsclo,istep=0 0 6
 newocc: new Fermi energy is      -0.270397 , with nelect=     16.000000
  Number of bissection calls =  49
 newocc : computed new occ. numbers for occopt= 3 , spin-unpolarized case.
 2.000 2.000 2.000 2.000 2.000 1.998 1.931 1.564 0.101 0.036 0.010 0.000
 0.000 0.000 0.000 0.000
 2.000 2.000 2.000 2.000 2.000 1.998 1.987 1.975 0.457 0.242 0.018 0.000
 0.000 0.000 0.000 0.000
 2.000 2.000 2.000 2.000 2.000 1.999 1.997 1.990 0.960 0.163 0.005 0.000
 0.000 0.000 0.000 0.000
 2.000 2.000 2.000 2.000 2.000 1.993 1.799 1.359 0.183 0.086 0.004 0.000
 0.000 0.000 0.000 0.000
 2.000 2.000 2.000 2.000 2.000 1.998 1.925 1.552 1.049 0.259 0.128 0.000
 0.000 0.000 0.000 0.000
 2.000 2.000 2.000 2.000 1.999 1.996 1.987 1.722 1.577 0.896 0.001 0.000
 0.000 0.000 0.000 0.000
 2.000 2.000 2.000 2.000 2.000 1.998 1.361 0.400 0.212 0.008 0.001 0.000
 0.000 0.000 0.000 0.000
 2.000 2.000 2.000 2.000 2.000 1.999 1.596 0.961 0.109 0.020 0.003 0.000
 0.000 0.000 0.000 0.000
 2.000 2.000 2.000 2.000 1.999 1.990 1.972 1.864 0.160 0.004 0.000 0.000
 0.000 0.000 0.000 0.000
 2.000 2.000 2.000 2.000 2.000 1.997 1.992 1.916 1.839 0.350 0.088 0.022
 0.000 0.000 0.000 0.000
 2.000 2.000 2.000 2.000 2.000 1.999 1.998 1.993 0.340 0.194 0.019 0.000
 0.000 0.000 0.000 0.000
 2.000 2.000 2.000 2.000 2.000 1.999 1.980 1.909 0.043 0.031 0.018 0.000
 0.000 0.000 0.000 0.000
 2.000 2.000 2.000 2.000 2.000 1.994 1.980 1.874 1.430 0.452 0.183 0.006
 0.000 0.000 0.000 0.000
 2.000 2.000 2.000 2.000 2.000 1.995 1.992 1.798 0.786 0.249 0.087 0.000
 0.000 0.000 0.000 0.000
 2.000 2.000 2.000 2.000 1.997 1.857 1.388 1.021 0.139 0.032 0.009 0.000
 0.000 0.000 0.000 0.000
 2.000 2.000 2.000 2.000 1.999 1.993 1.977 1.553 0.698 0.033 0.004 0.000
 0.000 0.000 0.000 0.000
 2.000 2.000 2.000 2.000 1.999 1.976 1.945 0.854 0.179 0.006 0.001 0.000
 0.000 0.000 0.000 0.000
 2.000 2.000 2.000 2.000 1.858 1.196 0.975 0.146 0.011 0.004 0.000 0.000
 0.000 0.000 0.000 0.000
mkrho: echo density (plane-wave part only)
 Total charge density [el/Bohr^3]
      Maximum=    6.7553E-01  at reduced coord.    0.6111    0.0000    0.5926
      Minimum=    1.6338E-03  at reduced coord.    0.0000    0.0000    0.0000
   Integrated=    1.6000E+01
 Spin up density      [el/Bohr^3]
      Maximum=    4.0244E-01  at reduced coord.    0.8889    0.8889    0.9630
      Minimum=    8.5522E-04  at reduced coord.    0.0000    0.0000    0.0000
   Integrated=    8.0000E+00
 Spin down density    [el/Bohr^3]
      Maximum=    4.0771E-01  at reduced coord.    0.6111    0.8889    0.5556
      Minimum=    7.7860E-04  at reduced coord.    0.0000    0.0000    0.0000
   Integrated=    8.0000E+00
 Magnetization (spin up - spin down) [el/Bohr^3]
      Maximum=    2.0077E-01  at reduced coord.    0.8889    0.8889    0.0000
      Minimum=   -2.0077E-01  at reduced coord.    0.3889    0.1111    0.4815
   Integrated=    0.0000E+00
 Relative magnetization (=zeta, between -1 and 1)
      Maximum=    3.4681E-01  at reduced coord.    0.8889    0.8889    0.0000
      Minimum=   -3.4220E-01  at reduced coord.    0.3889    0.1111    0.4815
 Total charge density [el/Bohr^3]
      Maximum=    6.7553E-01  at reduced coord.    0.6111    0.0000    0.5926
      Minimum=    1.6338E-03  at reduced coord.    0.0000    0.0000    0.0000
   Integrated=    1.6000E+01
 Spin up density      [el/Bohr^3]
      Maximum=    4.0244E-01  at reduced coord.    0.8889    0.8889    0.9630
      Minimum=    8.5522E-04  at reduced coord.    0.0000    0.0000    0.0000
   Integrated=    8.0000E+00
 Spin down density    [el/Bohr^3]
      Maximum=    4.0771E-01  at reduced coord.    0.6111    0.8889    0.5556
      Minimum=    7.7860E-04  at reduced coord.    0.0000    0.0000    0.0000
   Integrated=    8.0000E+00
 Magnetization (spin up - spin down) [el/Bohr^3]
      Maximum=    2.0077E-01  at reduced coord.    0.8889    0.8889    0.0000
      Minimum=   -2.0077E-01  at reduced coord.    0.3889    0.1111    0.4815
   Integrated=    0.0000E+00
 Relative magnetization (=zeta, between -1 and 1)
      Maximum=    3.4681E-01  at reduced coord.    0.8889    0.8889    0.0000
      Minimum=   -3.4220E-01  at reduced coord.    0.3889    0.1111    0.4815
  rhotov : is_hybrid_ncpp= F
  rhotov : n3xccc=        8748
 ETOT  6  -49.246874514760    -4.168E-04 1.010E-03 3.648E-01
 scprqt: <Vxc>= -5.3602702E-01 hartree

 Pulay update with  5 previous iterations:
 mixing of old trial potential : alpha(m:m-4)=   1.88     -0.563     -0.852      0.587     -0.289E-01
 scfcv_core: previous iteration took 00 [s]

 ITER STEP NUMBER     7
 vtorho : nnsclo_now=1, note that nnsclo,dbl_nnsclo,istep=0 0 7
 newocc: new Fermi energy is      -0.272017 , with nelect=     16.000000
  Number of bissection calls =  49
 newocc : computed new occ. numbers for occopt= 3 , spin-unpolarized case.
 2.000 2.000 2.000 2.000 2.000 1.998 1.890 1.553 0.094 0.045 0.011 0.000
 0.000 0.000 0.000 0.000
 2.000 2.000 2.000 2.000 2.000 1.998 1.980 1.971 0.530 0.255 0.019 0.000
 0.000 0.000 0.000 0.000
 2.000 2.000 2.000 2.000 2.000 1.999 1.995 1.985 1.053 0.183 0.005 0.000
 0.000 0.000 0.000 0.000
 2.000 2.000 2.000 2.000 2.000 1.989 1.785 1.352 0.191 0.093 0.004 0.000
 0.000 0.000 0.000 0.000
 2.000 2.000 2.000 2.000 2.000 1.996 1.926 1.514 1.120 0.265 0.133 0.000
 0.000 0.000 0.000 0.000
 2.000 2.000 2.000 2.000 1.998 1.995 1.985 1.746 1.560 0.922 0.001 0.000
 0.000 0.000 0.000 0.000
 2.000 2.000 2.000 2.000 2.000 1.998 1.354 0.432 0.203 0.007 0.001 0.000
 0.000 0.000 0.000 0.000
 2.000 2.000 2.000 2.000 2.000 1.999 1.598 0.947 0.108 0.017 0.003 0.000
 0.000 0.000 0.000 0.000
 2.000 2.000 2.000 2.000 1.999 1.989 1.973 1.874 0.115 0.005 0.000 0.000
 0.000 0.000 0.000 0.000
 2.000 2.000 2.000 2.000 2.000 1.997 1.988 1.880 1.834 0.384 0.092 0.029
 0.000 0.000 0.000 0.000
 2.000 2.000 2.000 2.000 2.000 1.999 1.997 1.990 0.334 0.222 0.021 0.000
 0.000 0.000 0.000 0.000
 2.000 2.000 2.000 2.000 2.000 1.999 1.974 1.897 0.045 0.032 0.017 0.000
 0.000 0.000 0.000 0.000
 2.000 2.000 2.000 2.000 1.999 1.993 1.967 1.875 1.404 0.475 0.222 0.006
 0.000 0.000 0.000 0.000
 2.000 2.000 2.000 2.000 2.000 1.995 1.989 1.791 0.849 0.252 0.087 0.000
 0.000 0.000 0.000 0.000
 2.000 2.000 2.000 2.000 1.995 1.876 1.295 0.912 0.143 0.031 0.009 0.000
 0.000 0.000 0.000 0.000
 2.000 2.000 2.000 2.000 1.999 1.989 1.971 1.604 0.807 0.030 0.004 0.000
 0.000 0.000 0.000 0.000
 2.000 2.000 2.000 2.000 1.999 1.980 1.934 0.850 0.175 0.005 0.001 0.000
 0.000 0.000 0.000 0.000
 2.000 2.000 2.000 2.000 1.837 1.167 0.843 0.136 0.012 0.004 0.000 0.000
 0.000 0.000 0.000 0.000
mkrho: echo density (plane-wave part only)
 Total charge density [el/Bohr^3]
      Maximum=    6.7573E-01  at reduced coord.    0.6111    0.0000    0.5926
      Minimum=    1.6316E-03  at reduced coord.    0.0000    0.0000    0.0000
   Integrated=    1.6000E+01
 Spin up density      [el/Bohr^3]
      Maximum=    3.9384E-01  at reduced coord.    0.8889    0.8889    0.9630
      Minimum=    8.4809E-04  at reduced coord.    0.0000    0.0000    0.0000
   Integrated=    8.0000E+00
 Spin down density    [el/Bohr^3]
      Maximum=    3.9890E-01  at reduced coord.    0.6111    0.8889    0.5556
      Minimum=    7.8347E-04  at reduced coord.    0.0000    0.0000    0.0000
   Integrated=    8.0000E+00
 Magnetization (spin up - spin down) [el/Bohr^3]
      Maximum=    1.8145E-01  at reduced coord.    0.8889    0.8889    0.0000
      Minimum=   -1.8129E-01  at reduced coord.    0.3889    0.1111    0.4815
   Integrated=    0.0000E+00
 Relative magnetization (=zeta, between -1 and 1)
      Maximum=    3.1185E-01  at reduced coord.    0.8889    0.8889    0.0000
      Minimum=   -3.0748E-01  at reduced coord.    0.3889    0.1111    0.4815
 Total charge density [el/Bohr^3]
      Maximum=    6.7573E-01  at reduced coord.    0.6111    0.0000    0.5926
      Minimum=    1.6316E-03  at reduced coord.    0.0000    0.0000    0.0000
   Integrated=    1.6000E+01
 Spin up density      [el/Bohr^3]
      Maximum=    3.9384E-01  at reduced coord.    0.8889    0.8889    0.9630
      Minimum=    8.4809E-04  at reduced coord.    0.0000    0.0000    0.0000
   Integrated=    8.0000E+00
 Spin down density    [el/Bohr^3]
      Maximum=    3.9890E-01  at reduced coord.    0.6111    0.8889    0.5556
      Minimum=    7.8347E-04  at reduced coord.    0.0000    0.0000    0.0000
   Integrated=    8.0000E+00
 Magnetization (spin up - spin down) [el/Bohr^3]
      Maximum=    1.8145E-01  at reduced coord.    0.8889    0.8889    0.0000
      Minimum=   -1.8129E-01  at reduced coord.    0.3889    0.1111    0.4815
   Integrated=    0.0000E+00
 Relative magnetization (=zeta, between -1 and 1)
      Maximum=    3.1185E-01  at reduced coord.    0.8889    0.8889    0.0000
      Minimum=   -3.0748E-01  at reduced coord.    0.3889    0.1111    0.4815
  rhotov : is_hybrid_ncpp= F
  rhotov : n3xccc=        8748
 ETOT  7  -49.247732914614    -8.584E-04 3.735E-04 1.865E-01
 scprqt: <Vxc>= -5.3602524E-01 hartree

 Pulay update with  6 previous iterations:
 mixing of old trial potential : alpha(m:m-4)=   1.19      0.121     -0.228     -0.210      0.145
 scfcv_core: previous iteration took 00 [s]

 ITER STEP NUMBER     8
 vtorho : nnsclo_now=1, note that nnsclo,dbl_nnsclo,istep=0 0 8
 newocc: new Fermi energy is      -0.274329 , with nelect=     16.000000
  Number of bissection calls =  46
 newocc : computed new occ. numbers for occopt= 3 , spin-unpolarized case.
 2.000 2.000 2.000 2.000 2.000 1.998 1.852 1.544 0.091 0.049 0.012 0.000
 0.000 0.000 0.000 0.000
 2.000 2.000 2.000 2.000 2.000 1.998 1.974 1.966 0.594 0.261 0.020 0.000
 0.000 0.000 0.000 0.000
 2.000 2.000 2.000 2.000 2.000 1.999 1.994 1.982 1.116 0.202 0.004 0.000
 0.000 0.000 0.000 0.000
 2.000 2.000 2.000 2.000 2.000 1.985 1.774 1.348 0.203 0.098 0.004 0.000
 0.000 0.000 0.000 0.000
 2.000 2.000 2.000 2.000 2.000 1.995 1.926 1.481 1.165 0.271 0.137 0.000
 0.000 0.000 0.000 0.000
 2.000 2.000 2.000 2.000 1.998 1.994 1.984 1.758 1.549 0.941 0.001 0.000
 0.000 0.000 0.000 0.000
 2.000 2.000 2.000 2.000 2.000 1.997 1.349 0.460 0.199 0.007 0.001 0.000
 0.000 0.000 0.000 0.000
 2.000 2.000 2.000 2.000 2.000 1.999 1.591 0.946 0.108 0.014 0.003 0.000
 0.000 0.000 0.000 0.000
 2.000 2.000 2.000 2.000 1.999 1.988 1.972 1.881 0.095 0.006 0.000 0.000
 0.000 0.000 0.000 0.000
 2.000 2.000 2.000 2.000 1.999 1.996 1.984 1.875 1.796 0.417 0.094 0.034
 0.000 0.000 0.000 0.000
 2.000 2.000 2.000 2.000 2.000 1.999 1.996 1.987 0.332 0.246 0.022 0.000
 0.000 0.000 0.000 0.000
 2.000 2.000 2.000 2.000 2.000 1.999 1.967 1.878 0.047 0.033 0.017 0.000
 0.000 0.000 0.000 0.000
 2.000 2.000 2.000 2.000 1.999 1.992 1.955 1.876 1.374 0.502 0.248 0.006
 0.000 0.000 0.000 0.000
 2.000 2.000 2.000 2.000 2.000 1.995 1.985 1.782 0.895 0.254 0.088 0.000
 0.000 0.000 0.000 0.000
 2.000 2.000 2.000 2.000 1.993 1.885 1.218 0.838 0.148 0.029 0.010 0.000
 0.000 0.000 0.000 0.000
 2.000 2.000 2.000 2.000 1.999 1.985 1.964 1.636 0.885 0.029 0.004 0.000
 0.000 0.000 0.000 0.000
 2.000 2.000 2.000 2.000 1.999 1.981 1.927 0.851 0.174 0.005 0.001 0.000
 0.000 0.000 0.000 0.000
 2.000 2.000 2.000 2.000 1.823 1.166 0.751 0.129 0.012 0.004 0.000 0.000
 0.000 0.000 0.000 0.000
mkrho: echo density (plane-wave part only)
 Total charge density [el/Bohr^3]
      Maximum=    6.7700E-01  at reduced coord.    0.6111    0.0000    0.5926
      Minimum=    1.6300E-03  at reduced coord.    0.0000    0.0000    0.0000
   Integrated=    1.6000E+01
 Spin up density      [el/Bohr^3]
      Maximum=    3.8790E-01  at reduced coord.    0.8889    0.8889    0.9630
      Minimum=    8.4353E-04  at reduced coord.    0.0000    0.0000    0.0000
   Integrated=    8.0000E+00
 Spin down density    [el/Bohr^3]
      Maximum=    3.9287E-01  at reduced coord.    0.6111    0.8889    0.5556
      Minimum=    7.8649E-04  at reduced coord.    0.0000    0.0000    0.0000
   Integrated=    8.0000E+00
 Magnetization (spin up - spin down) [el/Bohr^3]
      Maximum=    1.6711E-01  at reduced coord.    0.8889    0.8889    0.0000
      Minimum=   -1.6682E-01  at reduced coord.    0.3889    0.1111    0.4815
   Integrated=    0.0000E+00
 Relative magnetization (=zeta, between -1 and 1)
      Maximum=    2.8576E-01  at reduced coord.    0.8889    0.8889    0.0000
      Minimum=   -2.8154E-01  at reduced coord.    0.3889    0.1111    0.4815
 Total charge density [el/Bohr^3]
      Maximum=    6.7700E-01  at reduced coord.    0.6111    0.0000    0.5926
      Minimum=    1.6300E-03  at reduced coord.    0.0000    0.0000    0.0000
   Integrated=    1.6000E+01
 Spin up density      [el/Bohr^3]
      Maximum=    3.8790E-01  at reduced coord.    0.8889    0.8889    0.9630
      Minimum=    8.4353E-04  at reduced coord.    0.0000    0.0000    0.0000
   Integrated=    8.0000E+00
 Spin down density    [el/Bohr^3]
      Maximum=    3.9287E-01  at reduced coord.    0.6111    0.8889    0.5556
      Minimum=    7.8649E-04  at reduced coord.    0.0000    0.0000    0.0000
   Integrated=    8.0000E+00
 Magnetization (spin up - spin down) [el/Bohr^3]
      Maximum=    1.6711E-01  at reduced coord.    0.8889    0.8889    0.0000
      Minimum=   -1.6682E-01  at reduced coord.    0.3889    0.1111    0.4815
   Integrated=    0.0000E+00
 Relative magnetization (=zeta, between -1 and 1)
      Maximum=    2.8576E-01  at reduced coord.    0.8889    0.8889    0.0000
      Minimum=   -2.8154E-01  at reduced coord.    0.3889    0.1111    0.4815
  rhotov : is_hybrid_ncpp= F
  rhotov : n3xccc=        8748
 ETOT  8  -49.248228215136    -4.953E-04 7.002E-04 2.024E-02
 scprqt: <Vxc>= -5.3577298E-01 hartree

 Pulay update with  7 previous iterations:
 mixing of old trial potential : alpha(m:m-4)=   3.19      -1.77      -1.07      0.425      0.666
 scfcv_core: previous iteration took 00 [s]

 ITER STEP NUMBER     9
 vtorho : nnsclo_now=1, note that nnsclo,dbl_nnsclo,istep=0 0 9
 newocc: new Fermi energy is      -0.276823 , with nelect=     16.000000
  Number of bissection calls =  49
 newocc : computed new occ. numbers for occopt= 3 , spin-unpolarized case.
 2.000 2.000 2.000 2.000 2.000 1.998 1.721 1.521 0.108 0.050 0.014 0.000
 0.000 0.000 0.000 0.000
 2.000 2.000 2.000 2.000 1.999 1.998 1.965 1.938 0.771 0.262 0.023 0.000
 0.000 0.000 0.000 0.000
 2.000 2.000 2.000 2.000 2.000 1.999 1.990 1.970 1.252 0.245 0.004 0.000
 0.000 0.000 0.000 0.000
 2.000 2.000 2.000 2.000 2.000 1.975 1.750 1.335 0.238 0.102 0.003 0.000
 0.000 0.000 0.000 0.000
 2.000 2.000 2.000 2.000 2.000 1.992 1.924 1.420 1.262 0.281 0.141 0.000
 0.000 0.000 0.000 0.000
 2.000 2.000 2.000 2.000 1.997 1.992 1.980 1.793 1.522 0.974 0.001 0.000
 0.000 0.000 0.000 0.000
 2.000 2.000 2.000 2.000 2.000 1.995 1.330 0.515 0.190 0.007 0.001 0.000
 0.000 0.000 0.000 0.000
 2.000 2.000 2.000 2.000 2.000 1.999 1.576 0.943 0.105 0.011 0.003 0.000
 0.000 0.000 0.000 0.000
 2.000 2.000 2.000 2.000 1.998 1.986 1.971 1.897 0.059 0.008 0.000 0.000
 0.000 0.000 0.000 0.000
 2.000 2.000 2.000 2.000 1.999 1.995 1.974 1.889 1.627 0.503 0.100 0.048
 0.000 0.000 0.000 0.000
 2.000 2.000 2.000 2.000 2.000 1.999 1.994 1.977 0.328 0.295 0.025 0.000
 0.000 0.000 0.000 0.000
 2.000 2.000 2.000 2.000 2.000 1.999 1.953 1.844 0.051 0.036 0.016 0.000
 0.000 0.000 0.000 0.000
 2.000 2.000 2.000 2.000 1.999 1.988 1.913 1.879 1.313 0.607 0.295 0.006
 0.000 0.000 0.000 0.000
 2.000 2.000 2.000 2.000 1.999 1.996 1.971 1.780 0.989 0.255 0.088 0.000
 0.000 0.000 0.000 0.000
 2.000 2.000 2.000 2.000 1.987 1.909 1.076 0.696 0.161 0.026 0.010 0.000
 0.000 0.000 0.000 0.000
 2.000 2.000 2.000 2.000 1.999 1.972 1.943 1.711 1.061 0.027 0.003 0.000
 0.000 0.000 0.000 0.000
 2.000 2.000 2.000 2.000 1.998 1.984 1.911 0.848 0.169 0.004 0.001 0.000
 0.000 0.000 0.000 0.000
 2.000 2.000 2.000 2.000 1.792 1.170 0.571 0.118 0.013 0.004 0.000 0.000
 0.000 0.000 0.000 0.000
mkrho: echo density (plane-wave part only)
 Total charge density [el/Bohr^3]
      Maximum=    6.7800E-01  at reduced coord.    0.6111    0.0000    0.5926
      Minimum=    1.6265E-03  at reduced coord.    0.0000    0.0000    0.0000
   Integrated=    1.6000E+01
 Spin up density      [el/Bohr^3]
      Maximum=    3.7010E-01  at reduced coord.    0.8889    0.8889    0.9630
      Minimum=    8.3270E-04  at reduced coord.    0.0000    0.0000    0.0000
   Integrated=    8.0000E+00
 Spin down density    [el/Bohr^3]
      Maximum=    3.7514E-01  at reduced coord.    0.6111    0.8889    0.5556
      Minimum=    7.9381E-04  at reduced coord.    0.0000    0.0000    0.0000
   Integrated=    8.0000E+00
 Magnetization (spin up - spin down) [el/Bohr^3]
      Maximum=    1.2864E-01  at reduced coord.    0.8889    0.8889    0.0000
      Minimum=   -1.2809E-01  at reduced coord.    0.3889    0.1111    0.4815
   Integrated=    0.0000E+00
 Relative magnetization (=zeta, between -1 and 1)
      Maximum=    2.1864E-01  at reduced coord.    0.8889    0.8889    0.0000
      Minimum=   -2.1488E-01  at reduced coord.    0.3889    0.1111    0.4815
 Total charge density [el/Bohr^3]
      Maximum=    6.7800E-01  at reduced coord.    0.6111    0.0000    0.5926
      Minimum=    1.6265E-03  at reduced coord.    0.0000    0.0000    0.0000
   Integrated=    1.6000E+01
 Spin up density      [el/Bohr^3]
      Maximum=    3.7010E-01  at reduced coord.    0.8889    0.8889    0.9630
      Minimum=    8.3270E-04  at reduced coord.    0.0000    0.0000    0.0000
   Integrated=    8.0000E+00
 Spin down density    [el/Bohr^3]
      Maximum=    3.7514E-01  at reduced coord.    0.6111    0.8889    0.5556
      Minimum=    7.9381E-04  at reduced coord.    0.0000    0.0000    0.0000
   Integrated=    8.0000E+00
 Magnetization (spin up - spin down) [el/Bohr^3]
      Maximum=    1.2864E-01  at reduced coord.    0.8889    0.8889    0.0000
      Minimum=   -1.2809E-01  at reduced coord.    0.3889    0.1111    0.4815
   Integrated=    0.0000E+00
 Relative magnetization (=zeta, between -1 and 1)
      Maximum=    2.1864E-01  at reduced coord.    0.8889    0.8889    0.0000
      Minimum=   -2.1488E-01  at reduced coord.    0.3889    0.1111    0.4815
  rhotov : is_hybrid_ncpp= F
  rhotov : n3xccc=        8748
 ETOT  9  -49.248786447891    -5.582E-04 6.970E-04 1.875E-02
 scprqt: <Vxc>= -5.3566018E-01 hartree

 Pulay update with  7 previous iterations:
 mixing of old trial potential : alpha(m:m-4)=   1.36     -0.524      0.463     -0.558      0.147
 scfcv_core: previous iteration took 00 [s]

 ITER STEP NUMBER    10
 vtorho : nnsclo_now=1, note that nnsclo,dbl_nnsclo,istep=0 0 10
 newocc: new Fermi energy is      -0.276828 , with nelect=     16.000000
  Number of bissection calls =  49
 newocc : computed new occ. numbers for occopt= 3 , spin-unpolarized case.
 2.000 2.000 2.000 2.000 2.000 1.998 1.655 1.506 0.121 0.049 0.015 0.000
 0.000 0.000 0.000 0.000
 2.000 2.000 2.000 2.000 1.999 1.998 1.963 1.921 0.854 0.256 0.023 0.000
 0.000 0.000 0.000 0.000
 2.000 2.000 2.000 2.000 2.000 1.999 1.988 1.964 1.303 0.259 0.004 0.000
 0.000 0.000 0.000 0.000
 2.000 2.000 2.000 2.000 2.000 1.970 1.743 1.323 0.254 0.102 0.003 0.000
 0.000 0.000 0.000 0.000
 2.000 2.000 2.000 2.000 2.000 1.990 1.923 1.403 1.299 0.282 0.140 0.000
 0.000 0.000 0.000 0.000
 2.000 2.000 2.000 2.000 1.996 1.992 1.979 1.806 1.517 0.983 0.001 0.000
 0.000 0.000 0.000 0.000
 2.000 2.000 2.000 2.000 2.000 1.995 1.314 0.538 0.187 0.006 0.001 0.000
 0.000 0.000 0.000 0.000
 2.000 2.000 2.000 2.000 2.000 1.999 1.570 0.939 0.102 0.010 0.003 0.000
 0.000 0.000 0.000 0.000
 2.000 2.000 2.000 2.000 1.998 1.985 1.971 1.902 0.050 0.009 0.000 0.000
 0.000 0.000 0.000 0.000
 2.000 2.000 2.000 2.000 1.999 1.995 1.969 1.894 1.538 0.538 0.103 0.053
 0.000 0.000 0.000 0.000
 2.000 2.000 2.000 2.000 2.000 1.999 1.994 1.973 0.332 0.303 0.025 0.000
 0.000 0.000 0.000 0.000
 2.000 2.000 2.000 2.000 2.000 1.999 1.950 1.837 0.052 0.037 0.015 0.000
 0.000 0.000 0.000 0.000
 2.000 2.000 2.000 2.000 1.999 1.987 1.898 1.869 1.290 0.669 0.308 0.006
 0.000 0.000 0.000 0.000
 2.000 2.000 2.000 2.000 1.999 1.996 1.963 1.788 1.021 0.253 0.087 0.000
 0.000 0.000 0.000 0.000
 2.000 2.000 2.000 2.000 1.984 1.919 1.036 0.654 0.165 0.026 0.010 0.000
 0.000 0.000 0.000 0.000
 2.000 2.000 2.000 2.000 1.999 1.966 1.932 1.734 1.135 0.026 0.003 0.000
 0.000 0.000 0.000 0.000
 2.000 2.000 2.000 2.000 1.997 1.986 1.906 0.848 0.165 0.004 0.001 0.000
 0.000 0.000 0.000 0.000
 2.000 2.000 2.000 2.000 1.782 1.169 0.522 0.115 0.012 0.004 0.000 0.000
 0.000 0.000 0.000 0.000
mkrho: echo density (plane-wave part only)
 Total charge density [el/Bohr^3]
      Maximum=    6.7738E-01  at reduced coord.    0.6111    0.0000    0.5926
      Minimum=    1.6252E-03  at reduced coord.    0.0000    0.0000    0.0000
   Integrated=    1.6000E+01
 Spin up density      [el/Bohr^3]
      Maximum=    3.6149E-01  at reduced coord.    0.8889    0.8889    0.9630
      Minimum=    8.2860E-04  at reduced coord.    0.0000    0.0000    0.0000
   Integrated=    8.0000E+00
 Spin down density    [el/Bohr^3]
      Maximum=    3.6670E-01  at reduced coord.    0.6111    0.8889    0.5556
      Minimum=    7.9658E-04  at reduced coord.    0.0000    0.0000    0.0000
   Integrated=    8.0000E+00
 Magnetization (spin up - spin down) [el/Bohr^3]
      Maximum=    1.1072E-01  at reduced coord.    0.8889    0.8889    0.0000
      Minimum=   -1.1014E-01  at reduced coord.    0.3889    0.1111    0.4815
   Integrated=    0.0000E+00
 Relative magnetization (=zeta, between -1 and 1)
      Maximum=    1.8793E-01  at reduced coord.    0.8889    0.8889    0.0000
      Minimum=   -1.8454E-01  at reduced coord.    0.3889    0.1111    0.4815
 Total charge density [el/Bohr^3]
      Maximum=    6.7738E-01  at reduced coord.    0.6111    0.0000    0.5926
      Minimum=    1.6252E-03  at reduced coord.    0.0000    0.0000    0.0000
   Integrated=    1.6000E+01
 Spin up density      [el/Bohr^3]
      Maximum=    3.6149E-01  at reduced coord.    0.8889    0.8889    0.9630
      Minimum=    8.2860E-04  at reduced coord.    0.0000    0.0000    0.0000
   Integrated=    8.0000E+00
 Spin down density    [el/Bohr^3]
      Maximum=    3.6670E-01  at reduced coord.    0.6111    0.8889    0.5556
      Minimum=    7.9658E-04  at reduced coord.    0.0000    0.0000    0.0000
   Integrated=    8.0000E+00
 Magnetization (spin up - spin down) [el/Bohr^3]
      Maximum=    1.1072E-01  at reduced coord.    0.8889    0.8889    0.0000
      Minimum=   -1.1014E-01  at reduced coord.    0.3889    0.1111    0.4815
   Integrated=    0.0000E+00
 Relative magnetization (=zeta, between -1 and 1)
      Maximum=    1.8793E-01  at reduced coord.    0.8889    0.8889    0.0000
      Minimum=   -1.8454E-01  at reduced coord.    0.3889    0.1111    0.4815
  rhotov : is_hybrid_ncpp= F
  rhotov : n3xccc=        8748
 ETOT 10  -49.248894729694    -1.083E-04 1.744E-03 1.980E-03
 scprqt: <Vxc>= -5.3578416E-01 hartree

 Pulay update with  7 previous iterations:
 mixing of old trial potential : alpha(m:m-4)=   1.00      0.399     -0.907      0.661     -0.182
 scfcv_core: previous iteration took 00 [s]

 ITER STEP NUMBER    11
 vtorho : nnsclo_now=1, note that nnsclo,dbl_nnsclo,istep=0 0 11
 newocc: new Fermi energy is      -0.277160 , with nelect=     16.000000
  Number of bissection calls =  48
 newocc : computed new occ. numbers for occopt= 3 , spin-unpolarized case.
 2.000 2.000 2.000 2.000 1.999 1.997 1.604 1.501 0.131 0.049 0.015 0.000
 0.000 0.000 0.000 0.000
 2.000 2.000 2.000 2.000 1.999 1.998 1.962 1.906 0.910 0.255 0.023 0.000
 0.000 0.000 0.000 0.000
 2.000 2.000 2.000 2.000 2.000 1.999 1.987 1.961 1.335 0.267 0.004 0.000
 0.000 0.000 0.000 0.000
 2.000 2.000 2.000 2.000 2.000 1.966 1.737 1.321 0.265 0.101 0.003 0.000
 0.000 0.000 0.000 0.000
 2.000 2.000 2.000 2.000 2.000 1.989 1.923 1.395 1.317 0.283 0.141 0.000
 0.000 0.000 0.000 0.000
 2.000 2.000 2.000 2.000 1.996 1.991 1.978 1.813 1.512 0.986 0.001 0.000
 0.000 0.000 0.000 0.000
 2.000 2.000 2.000 2.000 2.000 1.994 1.310 0.550 0.185 0.006 0.001 0.000
 0.000 0.000 0.000 0.000
 2.000 2.000 2.000 2.000 2.000 1.999 1.569 0.936 0.101 0.010 0.003 0.000
 0.000 0.000 0.000 0.000
 2.000 2.000 2.000 2.000 1.998 1.985 1.971 1.905 0.045 0.009 0.000 0.000
 0.000 0.000 0.000 0.000
 2.000 2.000 2.000 2.000 1.999 1.994 1.965 1.898 1.469 0.563 0.107 0.056
 0.000 0.000 0.000 0.000
 2.000 2.000 2.000 2.000 2.000 1.999 1.993 1.970 0.340 0.305 0.026 0.000
 0.000 0.000 0.000 0.000
 2.000 2.000 2.000 2.000 2.000 1.999 1.947 1.832 0.053 0.037 0.015 0.000
 0.000 0.000 0.000 0.000
 2.000 2.000 2.000 2.000 1.999 1.986 1.895 1.853 1.273 0.716 0.314 0.006
 0.000 0.000 0.000 0.000
 2.000 2.000 2.000 2.000 1.999 1.996 1.957 1.793 1.039 0.253 0.087 0.000
 0.000 0.000 0.000 0.000
 2.000 2.000 2.000 2.000 1.982 1.924 1.014 0.628 0.168 0.026 0.010 0.000
 0.000 0.000 0.000 0.000
 2.000 2.000 2.000 2.000 1.999 1.961 1.924 1.752 1.179 0.026 0.003 0.000
 0.000 0.000 0.000 0.000
 2.000 2.000 2.000 2.000 1.997 1.986 1.902 0.846 0.164 0.003 0.001 0.000
 0.000 0.000 0.000 0.000
 2.000 2.000 2.000 2.000 1.776 1.167 0.495 0.114 0.012 0.004 0.000 0.000
 0.000 0.000 0.000 0.000
mkrho: echo density (plane-wave part only)
 Total charge density [el/Bohr^3]
      Maximum=    6.7730E-01  at reduced coord.    0.6111    0.0000    0.5926
      Minimum=    1.6249E-03  at reduced coord.    0.0000    0.0000    0.0000
   Integrated=    1.6000E+01
 Spin up density      [el/Bohr^3]
      Maximum=    3.5509E-01  at reduced coord.    0.8889    0.8889    0.9630
      Minimum=    8.2623E-04  at reduced coord.    0.0000    0.0000    0.0000
   Integrated=    8.0000E+00
 Spin down density    [el/Bohr^3]
      Maximum=    3.6052E-01  at reduced coord.    0.6111    0.8889    0.5556
      Minimum=    7.9870E-04  at reduced coord.    0.0000    0.0000    0.0000
   Integrated=    8.0000E+00
 Magnetization (spin up - spin down) [el/Bohr^3]
      Maximum=    9.7582E-02  at reduced coord.    0.8889    0.8889    0.0000
      Minimum=   -9.7011E-02  at reduced coord.    0.3889    0.1111    0.4815
   Integrated=    0.0000E+00
 Relative magnetization (=zeta, between -1 and 1)
      Maximum=    1.6557E-01  at reduced coord.    0.8889    0.8889    0.0000
      Minimum=   -1.6248E-01  at reduced coord.    0.3889    0.1111    0.4815
 Total charge density [el/Bohr^3]
      Maximum=    6.7730E-01  at reduced coord.    0.6111    0.0000    0.5926
      Minimum=    1.6249E-03  at reduced coord.    0.0000    0.0000    0.0000
   Integrated=    1.6000E+01
 Spin up density      [el/Bohr^3]
      Maximum=    3.5509E-01  at reduced coord.    0.8889    0.8889    0.9630
      Minimum=    8.2623E-04  at reduced coord.    0.0000    0.0000    0.0000
   Integrated=    8.0000E+00
 Spin down density    [el/Bohr^3]
      Maximum=    3.6052E-01  at reduced coord.    0.6111    0.8889    0.5556
      Minimum=    7.9870E-04  at reduced coord.    0.0000    0.0000    0.0000
   Integrated=    8.0000E+00
 Magnetization (spin up - spin down) [el/Bohr^3]
      Maximum=    9.7582E-02  at reduced coord.    0.8889    0.8889    0.0000
      Minimum=   -9.7011E-02  at reduced coord.    0.3889    0.1111    0.4815
   Integrated=    0.0000E+00
 Relative magnetization (=zeta, between -1 and 1)
      Maximum=    1.6557E-01  at reduced coord.    0.8889    0.8889    0.0000
      Minimum=   -1.6248E-01  at reduced coord.    0.3889    0.1111    0.4815
  rhotov : is_hybrid_ncpp= F
  rhotov : n3xccc=        8748
 ETOT 11  -49.248933169658    -3.844E-05 7.855E-04 2.701E-04
 scprqt: <Vxc>= -5.3582747E-01 hartree

 Pulay update with  7 previous iterations:
 mixing of old trial potential : alpha(m:m-4)=   1.71     -0.327     -0.649      0.776     -0.610
 scfcv_core: previous iteration took 00 [s]

 ITER STEP NUMBER    12
 vtorho : nnsclo_now=1, note that nnsclo,dbl_nnsclo,istep=0 0 12
 newocc: new Fermi energy is      -0.277444 , with nelect=     16.000000
  Number of bissection calls =  49
 newocc : computed new occ. numbers for occopt= 3 , spin-unpolarized case.
 2.000 2.000 2.000 2.000 1.999 1.997 1.559 1.495 0.142 0.048 0.015 0.000
 0.000 0.000 0.000 0.000
 2.000 2.000 2.000 2.000 1.999 1.998 1.961 1.892 0.963 0.253 0.024 0.000
 0.000 0.000 0.000 0.000
 2.000 2.000 2.000 2.000 2.000 1.999 1.986 1.957 1.362 0.274 0.004 0.000
 0.000 0.000 0.000 0.000
 2.000 2.000 2.000 2.000 2.000 1.962 1.732 1.318 0.275 0.101 0.003 0.000
 0.000 0.000 0.000 0.000
 2.000 2.000 2.000 2.000 2.000 1.988 1.922 1.393 1.329 0.283 0.141 0.000
 0.000 0.000 0.000 0.000
 2.000 2.000 2.000 2.000 1.996 1.991 1.977 1.818 1.509 0.989 0.001 0.000
 0.000 0.000 0.000 0.000
 2.000 2.000 2.000 2.000 2.000 1.994 1.304 0.563 0.184 0.006 0.001 0.000
 0.000 0.000 0.000 0.000
 2.000 2.000 2.000 2.000 2.000 1.999 1.566 0.934 0.100 0.009 0.003 0.000
 0.000 0.000 0.000 0.000
 2.000 2.000 2.000 2.000 1.998 1.985 1.971 1.907 0.041 0.009 0.000 0.000
 0.000 0.000 0.000 0.000
 2.000 2.000 2.000 2.000 1.999 1.994 1.962 1.901 1.406 0.585 0.110 0.059
 0.000 0.000 0.000 0.000
 2.000 2.000 2.000 2.000 2.000 1.999 1.993 1.968 0.349 0.304 0.026 0.000
 0.000 0.000 0.000 0.000
 2.000 2.000 2.000 2.000 2.000 1.999 1.945 1.827 0.053 0.037 0.014 0.000
 0.000 0.000 0.000 0.000
 2.000 2.000 2.000 2.000 1.999 1.986 1.894 1.834 1.256 0.761 0.319 0.006
 0.000 0.000 0.000 0.000
 2.000 2.000 2.000 2.000 1.999 1.997 1.951 1.800 1.054 0.253 0.087 0.000
 0.000 0.000 0.000 0.000
 2.000 2.000 2.000 2.000 1.980 1.929 0.994 0.610 0.169 0.026 0.011 0.000
 0.000 0.000 0.000 0.000
 2.000 2.000 2.000 2.000 1.999 1.956 1.917 1.766 1.221 0.025 0.003 0.000
 0.000 0.000 0.000 0.000
 2.000 2.000 2.000 2.000 1.997 1.987 1.899 0.847 0.162 0.003 0.001 0.000
 0.000 0.000 0.000 0.000
 2.000 2.000 2.000 2.000 1.772 1.166 0.475 0.113 0.012 0.004 0.000 0.000
 0.000 0.000 0.000 0.000
mkrho: echo density (plane-wave part only)
 Total charge density [el/Bohr^3]
      Maximum=    6.7722E-01  at reduced coord.    0.6111    0.0000    0.5926
      Minimum=    1.6245E-03  at reduced coord.    0.0000    0.0000    0.0000
   Integrated=    1.6000E+01
 Spin up density      [el/Bohr^3]
      Maximum=    3.4914E-01  at reduced coord.    0.8889    0.8889    0.9630
      Minimum=    8.2411E-04  at reduced coord.    0.0000    0.0000    0.0000
   Integrated=    8.0000E+00
 Spin down density    [el/Bohr^3]
      Maximum=    3.5484E-01  at reduced coord.    0.6111    0.8889    0.5556
      Minimum=    8.0041E-04  at reduced coord.    0.0000    0.0000    0.0000
   Integrated=    8.0000E+00
 Magnetization (spin up - spin down) [el/Bohr^3]
      Maximum=    8.4979E-02  at reduced coord.    0.8889    0.8889    0.0000
      Minimum=   -8.4466E-02  at reduced coord.    0.3889    0.1111    0.4815
   Integrated=    0.0000E+00
 Relative magnetization (=zeta, between -1 and 1)
      Maximum=    1.4408E-01  at reduced coord.    0.8889    0.8889    0.0000
      Minimum=   -1.4137E-01  at reduced coord.    0.3889    0.1111    0.4815
 Total charge density [el/Bohr^3]
      Maximum=    6.7722E-01  at reduced coord.    0.6111    0.0000    0.5926
      Minimum=    1.6245E-03  at reduced coord.    0.0000    0.0000    0.0000
   Integrated=    1.6000E+01
 Spin up density      [el/Bohr^3]
      Maximum=    3.4914E-01  at reduced coord.    0.8889    0.8889    0.9630
      Minimum=    8.2411E-04  at reduced coord.    0.0000    0.0000    0.0000
   Integrated=    8.0000E+00
 Spin down density    [el/Bohr^3]
      Maximum=    3.5484E-01  at reduced coord.    0.6111    0.8889    0.5556
      Minimum=    8.0041E-04  at reduced coord.    0.0000    0.0000    0.0000
   Integrated=    8.0000E+00
 Magnetization (spin up - spin down) [el/Bohr^3]
      Maximum=    8.4979E-02  at reduced coord.    0.8889    0.8889    0.0000
      Minimum=   -8.4466E-02  at reduced coord.    0.3889    0.1111    0.4815
   Integrated=    0.0000E+00
 Relative magnetization (=zeta, between -1 and 1)
      Maximum=    1.4408E-01  at reduced coord.    0.8889    0.8889    0.0000
      Minimum=   -1.4137E-01  at reduced coord.    0.3889    0.1111    0.4815
  rhotov : is_hybrid_ncpp= F
  rhotov : n3xccc=        8748
 ETOT 12  -49.248951382868    -1.821E-05 1.393E-03 5.769E-05
 scprqt: <Vxc>= -5.3584855E-01 hartree

 Pulay update with  7 previous iterations:
 mixing of old trial potential : alpha(m:m-4)=   1.82     -0.978      0.114      0.833E-01 -0.919E-01
 scfcv_core: previous iteration took 00 [s]

 ITER STEP NUMBER    13
 vtorho : nnsclo_now=1, note that nnsclo,dbl_nnsclo,istep=0 0 13
 newocc: new Fermi energy is      -0.277636 , with nelect=     16.000000
  Number of bissection calls =  43
 newocc : computed new occ. numbers for occopt= 3 , spin-unpolarized case.
 2.000 2.000 2.000 2.000 1.999 1.997 1.529 1.490 0.150 0.047 0.016 0.000
 0.000 0.000 0.000 0.000
 2.000 2.000 2.000 2.000 1.999 1.998 1.960 1.881 0.999 0.252 0.024 0.000
 0.000 0.000 0.000 0.000
 2.000 2.000 2.000 2.000 2.000 1.999 1.985 1.955 1.380 0.278 0.004 0.000
 0.000 0.000 0.000 0.000
 2.000 2.000 2.000 2.000 2.000 1.960 1.729 1.316 0.282 0.101 0.003 0.000
 0.000 0.000 0.000 0.000
 2.000 2.000 2.000 2.000 2.000 1.987 1.922 1.395 1.333 0.283 0.140 0.000
 0.000 0.000 0.000 0.000
 2.000 2.000 2.000 2.000 1.996 1.991 1.977 1.822 1.507 0.991 0.001 0.000
 0.000 0.000 0.000 0.000
 2.000 2.000 2.000 2.000 2.000 1.993 1.301 0.571 0.183 0.006 0.001 0.000
 0.000 0.000 0.000 0.000
[...]
  -0.24201   -0.23830   -0.22820   -0.17328    0.03814    0.09675    0.50681    0.52955
      occupation numbers for kpt#  12
   2.00000    2.00000    1.99999    1.99986    1.99972    1.99940    1.94184    1.82100
   0.05431    0.03782    0.01394    0.00006    0.00000    0.00000    0.00000    0.00000
 kpt#  13, nband= 16, wtk=  0.05556, kpt=  0.0833  0.2500  0.3750 (reduced coord)
  -0.50559   -0.45651   -0.39637   -0.38993   -0.35408   -0.32650   -0.30666   -0.30010
  -0.28253   -0.27430   -0.26141   -0.21969    0.13636    0.23523    0.42330    0.51238
      occupation numbers for kpt#  13
   2.00000    2.00000    1.99999    1.99997    1.99903    1.98478    1.89441    1.80593
   1.23263    0.82731    0.32528    0.00598    0.00000    0.00000    0.00000    0.00000
 kpt#  14, nband= 16, wtk=  0.05556, kpt=  0.2500  0.2500  0.3750 (reduced coord)
  -0.47604   -0.43214   -0.40537   -0.39856   -0.35226   -0.34223   -0.31291   -0.30038
  -0.27923   -0.25844   -0.24681   -0.14542    0.15862    0.16567    0.32874    0.34504
      occupation numbers for kpt#  14
   2.00000    2.00000    1.99999    1.99999    1.99883    1.99682    1.94204    1.81083
   1.07153    0.25243    0.08637    0.00000    0.00000    0.00000    0.00000    0.00000
 kpt#  15, nband= 16, wtk=  0.05556, kpt=  0.4167  0.2500  0.3750 (reduced coord)
  -0.45303   -0.43423   -0.42284   -0.41886   -0.32205   -0.31185   -0.27721   -0.26905
  -0.25411   -0.23438   -0.22539   -0.12173    0.02534    0.08376    0.33724    0.41328
      occupation numbers for kpt#  15
   2.00000    2.00000    2.00000    2.00000    1.97636    1.93578    0.97061    0.58885
   0.17118    0.02571    0.01054    0.00000    0.00000    0.00000    0.00000    0.00000
 kpt#  16, nband= 16, wtk=  0.05556, kpt=  0.0833  0.4167  0.3750 (reduced coord)
  -0.45046   -0.44206   -0.41102   -0.40156   -0.35214   -0.31420   -0.30784   -0.29886
  -0.28336   -0.23398   -0.21298   -0.14098   -0.05417    0.02971    0.48530    0.60168
      occupation numbers for kpt#  16
   2.00000    2.00000    2.00000    1.99999    1.99882    1.94889    1.90560    1.78316
   1.27135    0.02472    0.00306    0.00000    0.00000    0.00000    0.00000    0.00000
 kpt#  17, nband= 16, wtk=  0.05556, kpt=  0.2500  0.4167  0.3750 (reduced coord)
  -0.44946   -0.44304   -0.41348   -0.38676   -0.34181   -0.32851   -0.30674   -0.27475
  -0.25342   -0.21348   -0.20011   -0.08745   -0.03534    0.04736    0.33083    0.42351
      occupation numbers for kpt#  17
   2.00000    2.00000    2.00000    1.99996    1.99669    1.98754    1.89521    0.84909
   0.16070    0.00322    0.00085    0.00000    0.00000    0.00000    0.00000    0.00000
 kpt#  18, nband= 16, wtk=  0.05556, kpt=  0.4167  0.4167  0.3750 (reduced coord)
  -0.45714   -0.45249   -0.43345   -0.41893   -0.29804   -0.28111   -0.26541   -0.24949
  -0.22699   -0.21555   -0.15488   -0.05232   -0.01954   -0.01239    0.29105    0.30486
      occupation numbers for kpt#  18
   2.00000    2.00000    2.00000    2.00000    1.76674    1.16419    0.44949    0.11143
   0.01236    0.00395    0.00001    0.00000    0.00000    0.00000    0.00000    0.00000
 Total charge density [el/Bohr^3]
      Maximum=    6.7717E-01  at reduced coord.    0.6111    0.0000    0.5926
 Next maximum=    6.7717E-01  at reduced coord.    0.3889    0.0000    0.5926
      Minimum=    1.6240E-03  at reduced coord.    0.0000    0.0000    0.0000
 Next minimum=    4.0093E-03  at reduced coord.    0.5000    0.0000    0.4815
   Integrated=    1.6000E+01
 Spin up density      [el/Bohr^3]
      Maximum=    3.4363E-01  at reduced coord.    0.8889    0.0000    0.8889
 Next maximum=    3.4363E-01  at reduced coord.    0.1111    0.0000    0.8889
      Minimum=    8.2122E-04  at reduced coord.    0.0000    0.0000    0.0000
 Next minimum=    1.9580E-03  at reduced coord.    0.5000    0.0000    0.4815
   Integrated=    8.0000E+00
 Spin down density    [el/Bohr^3]
      Maximum=    3.4827E-01  at reduced coord.    0.6111    0.0000    0.5926
 Next maximum=    3.4827E-01  at reduced coord.    0.3889    0.0000    0.5926
      Minimum=    8.0282E-04  at reduced coord.    0.0000    0.0000    0.0000
 Next minimum=    2.0513E-03  at reduced coord.    0.5000    0.0000    0.4815
   Integrated=    8.0000E+00
 Magnetization (spin up - spin down) [el/Bohr^3]
      Maximum=    6.6684E-02  at reduced coord.    0.8889    0.8889    0.0000
 Next maximum=    6.6684E-02  at reduced coord.    0.1111    0.8889    0.0000
      Minimum=   -6.6284E-02  at reduced coord.    0.3889    0.1111    0.4815
 Next minimum=   -6.6284E-02  at reduced coord.    0.6111    0.1111    0.4815
   Integrated=    0.0000E+00
 Relative magnetization (=zeta, between -1 and 1)
      Maximum=    1.1296E-01  at reduced coord.    0.8889    0.8889    0.0000
 Next maximum=    1.1296E-01  at reduced coord.    0.1111    0.8889    0.0000
      Minimum=   -1.1084E-01  at reduced coord.    0.3889    0.1111    0.4815
 Next minimum=   -1.1084E-01  at reduced coord.    0.6111    0.1111    0.4815

 Cartesian components of stress tensor (hartree/bohr^3)
  sigma(1 1)=  2.01030631E-02  sigma(3 2)=  0.00000000E+00
  sigma(2 2)=  2.01030631E-02  sigma(3 1)=  0.00000000E+00
  sigma(3 3)=  1.83477165E-02  sigma(2 1)=  7.05752045E-04

-Cartesian components of stress tensor (GPa)         [Pressure= -5.7424E+02 GPa]
- sigma(1 1)=  5.91452435E+02  sigma(3 2)=  0.00000000E+00
- sigma(2 2)=  5.91452435E+02  sigma(3 1)=  0.00000000E+00
- sigma(3 3)=  5.39808366E+02  sigma(2 1)=  2.07639386E+01

== END DATASET(S) ==============================================================
================================================================================
  
 -outvars: echo values of variables after computation  --------
 
 These variables are accessible in NetCDF format (tspin_2o_OUT.nc)

            acell      6.6000000000E+00  6.6000000000E+00  6.6000000000E+00 Bohr
              amu      5.58470000E+01
             ecut      1.80000000E+01 Hartree
           etotal     -4.9248959290E+01
            fcart     -1.1952437958E-31  1.1952437958E-31 -0.0000000000E+00
                       1.1952437958E-31 -1.1952437958E-31 -0.0000000000E+00
-          fftalg         312
              kpt      8.33333333E-02  8.33333333E-02  1.25000000E-01
                       2.50000000E-01  8.33333333E-02  1.25000000E-01
                       4.16666667E-01  8.33333333E-02  1.25000000E-01
                       8.33333333E-02  2.50000000E-01  1.25000000E-01
                       2.50000000E-01  2.50000000E-01  1.25000000E-01
                       4.16666667E-01  2.50000000E-01  1.25000000E-01
                       8.33333333E-02  4.16666667E-01  1.25000000E-01
                       2.50000000E-01  4.16666667E-01  1.25000000E-01
                       4.16666667E-01  4.16666667E-01  1.25000000E-01
                       8.33333333E-02  8.33333333E-02  3.75000000E-01
                       2.50000000E-01  8.33333333E-02  3.75000000E-01
                       4.16666667E-01  8.33333333E-02  3.75000000E-01
                       8.33333333E-02  2.50000000E-01  3.75000000E-01
                       2.50000000E-01  2.50000000E-01  3.75000000E-01
                       4.16666667E-01  2.50000000E-01  3.75000000E-01
                       8.33333333E-02  4.16666667E-01  3.75000000E-01
                       2.50000000E-01  4.16666667E-01  3.75000000E-01
                       4.16666667E-01  4.16666667E-01  3.75000000E-01
         kptrlatt        6    0    0      0    6    0      0    0    4
          kptrlen      2.64000000E+01
P           mkmem           9
            natom           2
            nband          16
            ngfft          18      18      27
             nkpt          18
           nspden           2
            nstep          70
             nsym          16
           ntypat           1
              occ      2.000000  2.000000  1.999999  1.999974  1.999448  1.997278
                       1.506324  1.481058  0.156604  0.046521  0.015745  0.000003
                       0.000000  0.000000  0.000000  0.000000
                       2.000000  2.000000  1.999997  1.999957  1.999405  1.997609
                       1.959256  1.871088  1.031088  0.250774  0.023963  0.000000
                       0.000000  0.000000  0.000000  0.000000
                       2.000000  1.999999  1.999992  1.999873  1.999732  1.999477
                       1.983917  1.953524  1.394530  0.281974  0.003512  0.000000
                       0.000000  0.000000  0.000000  0.000000
                       2.000000  2.000000  1.999997  1.999994  1.999963  1.958037
                       1.726106  1.314499  0.287783  0.100848  0.003268  0.000000
                       0.000000  0.000000  0.000000  0.000000
                       2.000000  2.000000  1.999991  1.999983  1.999851  1.986759
                       1.921687  1.398858  1.334356  0.283695  0.140439  0.000000
                       0.000000  0.000000  0.000000  0.000000
                       2.000000  1.999998  1.999983  1.999945  1.995768  1.990601
                       1.976447  1.824942  1.504980  0.992406  0.000752  0.000000
                       0.000000  0.000000  0.000000  0.000000
                       2.000000  2.000000  2.000000  1.999993  1.999954  1.993112
                       1.298150  0.577667  0.182066  0.005999  0.000754  0.000000
                       0.000000  0.000000  0.000000  0.000000
                       2.000000  1.999999  1.999996  1.999995  1.999876  1.999069
                       1.562310  0.931965  0.098866  0.008995  0.003016  0.000000
                       0.000000  0.000000  0.000000  0.000000
                       2.000000  1.999999  1.999989  1.999924  1.997930  1.984549
                       1.970400  1.909767  0.036780  0.010172  0.000004  0.000000
                       0.000000  0.000000  0.000000  0.000000
                       2.000000  2.000000  1.999992  1.999959  1.999178  1.993666
                       1.958201  1.905142  1.319826  0.617090  0.115338  0.061668
                       0.000000  0.000000  0.000000  0.000000
                       2.000000  1.999999  1.999995  1.999994  1.999789  1.999541
                       1.992502  1.964479  0.360533  0.302135  0.026905  0.000093
                       0.000000  0.000000  0.000000  0.000000
                       2.000000  2.000000  1.999987  1.999863  1.999722  1.999402
                       1.941836  1.821003  0.054306  0.037816  0.013943  0.000058
                       0.000000  0.000000  0.000000  0.000000
                       2.000000  2.000000  1.999986  1.999973  1.999028  1.984785
                       1.894406  1.805931  1.232627  0.827315  0.325280  0.005975
                       0.000000  0.000000  0.000000  0.000000
                       2.000000  2.000000  1.999994  1.999989  1.998834  1.996825
                       1.942045  1.810833  1.071532  0.252428  0.086372  0.000004
                       0.000000  0.000000  0.000000  0.000000
                       2.000000  2.000000  1.999999  1.999999  1.976357  1.935785
                       0.970609  0.588852  0.171180  0.025708  0.010543  0.000000
                       0.000000  0.000000  0.000000  0.000000
                       2.000000  2.000000  1.999997  1.999992  1.998820  1.948886
                       1.905600  1.783162  1.271350  0.024715  0.003059  0.000002
                       0.000000  0.000000  0.000000  0.000000
                       2.000000  2.000000  1.999997  1.999963  1.996687  1.987539
                       1.895208  0.849091  0.160698  0.003215  0.000845  0.000000
                       0.000000  0.000000  0.000000  0.000000
                       2.000000  2.000000  2.000000  1.999999  1.766735  1.164192
                       0.449492  0.111434  0.012358  0.003952  0.000009  0.000000
                       0.000000  0.000000  0.000000  0.000000
           occopt           3
           prtdos           1
            rprim      5.0000000000E-01 -5.0000000000E-01  0.0000000000E+00
                       5.0000000000E-01  5.0000000000E-01  0.0000000000E+00
                       0.0000000000E+00  0.0000000000E+00  1.0000000000E+00
           shiftk      5.00000000E-01  5.00000000E-01  5.00000000E-01
          spgroup          47
           spinat      0.0000000000E+00  0.0000000000E+00  4.0000000000E+00
                       0.0000000000E+00  0.0000000000E+00 -4.0000000000E+00
           strten      2.0103063051E-02  2.0103063051E-02  1.8347716505E-02
                       0.0000000000E+00  0.0000000000E+00  7.0575204548E-04
           symafm        1   -1    1   -1    1   -1    1   -1    1   -1
                         1   -1    1   -1    1   -1
           symrel      1  0  0   0  1  0   0  0  1       1  0  0   0  1  0   0  0  1
                      -1  0  0   0 -1  0   0  0 -1      -1  0  0   0 -1  0   0  0 -1
                      -1  0  0   0  1  0   0  0 -1      -1  0  0   0  1  0   0  0 -1
                       1  0  0   0 -1  0   0  0  1       1  0  0   0 -1  0   0  0  1
                      -1  0  0   0 -1  0   0  0  1      -1  0  0   0 -1  0   0  0  1
                       1  0  0   0  1  0   0  0 -1       1  0  0   0  1  0   0  0 -1
                       1  0  0   0 -1  0   0  0 -1       1  0  0   0 -1  0   0  0 -1
                      -1  0  0   0  1  0   0  0  1      -1  0  0   0  1  0   0  0  1
            tnons      0.0000000  0.0000000  0.0000000     0.5000000  0.0000000  0.5000000
                       0.0000000  0.0000000  0.0000000     0.5000000  0.0000000  0.5000000
                       0.0000000  0.0000000  0.0000000     0.5000000  0.0000000  0.5000000
                       0.0000000  0.0000000  0.0000000     0.5000000  0.0000000  0.5000000
                       0.0000000  0.0000000  0.0000000     0.5000000  0.0000000  0.5000000
                       0.0000000  0.0000000  0.0000000     0.5000000  0.0000000  0.5000000
                       0.0000000  0.0000000  0.0000000     0.5000000  0.0000000  0.5000000
                       0.0000000  0.0000000  0.0000000     0.5000000  0.0000000  0.5000000
           tolwfr      1.00000000E-07
            typat      1  1
              wtk        0.05556    0.05556    0.05556    0.05556    0.05556    0.05556
                         0.05556    0.05556    0.05556    0.05556    0.05556    0.05556
                         0.05556    0.05556    0.05556    0.05556    0.05556    0.05556
           xangst      0.0000000000E+00  0.0000000000E+00  0.0000000000E+00
                       8.7314239417E-01 -8.7314239417E-01  1.7462847883E+00
            xcart      0.0000000000E+00  0.0000000000E+00  0.0000000000E+00
                       1.6500000000E+00 -1.6500000000E+00  3.3000000000E+00
             xred      0.0000000000E+00  0.0000000000E+00  0.0000000000E+00
                       5.0000000000E-01  0.0000000000E+00  5.0000000000E-01
            znucl       26.00000

================================================================================
  

================================================================================

 Suggested references for the acknowledgment of ABINIT usage.

 The users of ABINIT have little formal obligations with respect to the ABINIT group
 (those specified in the GNU General Public License, http://www.gnu.org/copyleft/gpl.txt).
 However, it is common practice in the scientific literature,
 to acknowledge the efforts of people that have made the research possible.
 In this spirit, please find below suggested citations of work written by ABINIT developers,
 corresponding to implementations inside of ABINIT that you have used in the present run.
 Note also that it will be of great value to readers of publications presenting these results,
 to read papers enabling them to understand the theoretical formalism and details
 of the ABINIT implementation.
 For information on why they are suggested, see also https://docs.abinit.org/theory/acknowledgments.
-
- [1] Recent developments in the ABINIT software package.
- Computer Phys. Comm. 205, 106 (2016).
- X.Gonze, F.Jollet, F.Abreu Araujo, D.Adams, B.Amadon, T.Applencourt,
- C.Audouze, J.-M.Beuken, J.Bieder, A.Bokhanchuk, E.Bousquet, F.Bruneval
- D.Caliste, M.Cote, F.Dahm, F.Da Pieve, M.Delaveau, M.Di Gennaro,
- B.Dorado, C.Espejo, G.Geneste, L.Genovese, A.Gerossier, M.Giantomassi,
- Y.Gillet, D.R.Hamann, L.He, G.Jomard, J.Laflamme Janssen, S.Le Roux,
- A.Levitt, A.Lherbier, F.Liu, I.Lukacevic, A.Martin, C.Martins,
- M.J.T.Oliveira, S.Ponce, Y.Pouillon, T.Rangel, G.-M.Rignanese,
- A.H.Romero, B.Rousseau, O.Rubel, A.A.Shukri, M.Stankovski, M.Torrent,
- M.J.Van Setten, B.Van Troeye, M.J.Verstraete, D.Waroquier, J.Wiktor,
- B.Xu, A.Zhou, J.W.Zwanziger.
- Comment : the fourth generic paper describing the ABINIT project.
- Note that a version of this paper, that is not formatted for Computer Phys. Comm. 
- is available at https://www.abinit.org/about/ABINIT16.pdf .
- The licence allows the authors to put it on the Web.
- DOI and bibtex : see https://docs.abinit.org/theory/bibliography/#gonze2016
-
- [2] ABINIT : First-principles approach of materials and nanosystem properties.
- Computer Phys. Comm. 180, 2582-2615 (2009).
- X. Gonze, B. Amadon, P.-M. Anglade, J.-M. Beuken, F. Bottin, P. Boulanger, F. Bruneval,
- D. Caliste, R. Caracas, M. Cote, T. Deutsch, L. Genovese, Ph. Ghosez, M. Giantomassi
- S. Goedecker, D.R. Hamann, P. Hermet, F. Jollet, G. Jomard, S. Leroux, M. Mancini, S. Mazevet,
- M.J.T. Oliveira, G. Onida, Y. Pouillon, T. Rangel, G.-M. Rignanese, D. Sangalli, R. Shaltaf,
- M. Torrent, M.J. Verstraete, G. Zerah, J.W. Zwanziger
- Comment : the third generic paper describing the ABINIT project.
- Note that a version of this paper, that is not formatted for Computer Phys. Comm. 
- is available at https://www.abinit.org/about/ABINIT_CPC_v10.pdf .
- The licence allows the authors to put it on the Web.
- DOI and bibtex : see https://docs.abinit.org/theory/bibliography/#gonze2009
-
- [3] A brief introduction to the ABINIT software package.
- Z. Kristallogr. 220, 558-562 (2005).
- X. Gonze, G.-M. Rignanese, M. Verstraete, J.-M. Beuken, Y. Pouillon, R. Caracas, F. Jollet,
- M. Torrent, G. Zerah, M. Mikami, Ph. Ghosez, M. Veithen, J.-Y. Raty, V. Olevano, F. Bruneval,
- L. Reining, R. Godby, G. Onida, D.R. Hamann, and D.C. Allan.
- Comment : the second generic paper describing the ABINIT project. Note that this paper
- should be cited especially if you are using the GW part of ABINIT, as several authors
- of this part are not in the list of authors of the first or third paper.
- The .pdf of the latter paper is available at https://www.abinit.org/about/zfk_0505-06_558-562.pdf.
- Note that it should not redistributed (Copyright by Oldenburg Wissenshaftverlag,
- the licence allows the authors to put it on the Web).
- DOI and bibtex : see https://docs.abinit.org/theory/bibliography/#gonze2005
-
- And optionally:
-
- [4] First-principles computation of material properties : the ABINIT software project. 
- X. Gonze, J.-M. Beuken, R. Caracas, F. Detraux, M. Fuchs, G.-M. Rignanese, L. Sindic,
- M. Verstraete, G. Zerah, F. Jollet, M. Torrent, A. Roy, M. Mikami, Ph. Ghosez, J.-Y. Raty, D.C. Allan.
- Computational Materials Science 25, 478-492 (2002). http://dx.doi.org/10.1016/S0927-0256(02)00325-7
- Comment : the original paper describing the ABINIT project.
- DOI and bibtex : see https://docs.abinit.org/theory/bibliography/#gonze2002
 Proc.   0 individual time (sec): cpu=         14.5  wall=         15.5

 Calculation completed.
.Delivered   0 WARNINGs and   0 COMMENTs to log file.

--- !FinalSummary
program: abinit
version: 8.10.3
start_datetime: Mon Oct 28 11:17:42 2019
end_datetime: Mon Oct 28 11:17:58 2019
overall_cpu_time:          29.2
overall_wall_time:          30.9
exit_requested_by_user: no 
timelimit: 0
pseudos: 
    Fe  : 04ce328394cac36b238b072f266c7568
usepaw: 0
mpi_procs: 2
omp_threads: 1
num_warnings: 0
num_comments: 0
...
