  ABINIT 8.11.13
  
  Give name for formatted input file: 
sp.in
  Give name for formatted output file:
sp.out
  Give root name for generic input files:
spi
  Give root name for generic output files:
spo
  Give root name for generic temporary files:
sp
 
--- !COMMENT
src_file: m_dtfil.F90
src_line: 1450
message: |
    Output file: sp.out already exists.
...
 
 
--- !COMMENT
src_file: m_dtfil.F90
src_line: 1474
message: |
    Renaming old sp.out to sp.out0001
...
 

.Version 8.11.13 of ABINIT 
.(MPI version, prepared for a x86_64_linux_intel14.0 computer) 

.Copyright (C) 1998-2019 ABINIT group . 
 ABINIT comes with ABSOLUTELY NO WARRANTY.
 It is free software, and you are welcome to redistribute it
 under certain conditions (GNU General Public License,
 see ~abinit/COPYING or http://www.gnu.org/copyleft/gpl.txt).

 ABINIT is a project of the Universite Catholique de Louvain,
 Corning Inc. and other collaborators, see ~abinit/doc/developers/contributors.txt .
 Please read https://docs.abinit.org/theory/acknowledgments for suggested
 acknowledgments of the ABINIT effort.
 For more information, see https://www.abinit.org .

.Starting date : Thu 12 Dec 2019.
- ( at 17h35 )
  
 
 ++++++++++++++++++++++++++++++++++++++++++++++++++++++++++++++++++++++++++++++
 
 === Build Information === 
  Version       : 8.11.13
  Build target  : x86_64_linux_intel14.0
  Build date    : 20191206
 
 === Compiler Suite === 
  C compiler       : intel14.0
  C++ compiler     : gnu14.0
  Fortran compiler : intel14.0
  CFLAGS           :  -g -O2
  CXXFLAGS         :  -g -O2 -mtune=native -march=native
  FCFLAGS          :  -g -extend-source -nofpscomp
  FC_LDFLAGS       :    -static-intel -static-libgcc
 
 === Optimizations === 
  Debug level        : basic
  Optimization level : standard
  Architecture       : intel_xeon
 
 === Multicore === 
  Parallel build : yes
  Parallel I/O   : yes
  openMP support : no
  GPU support    : no
 
 === Connectors / Fallbacks === 
  Connectors on : yes
  Fallbacks on  : yes
  DFT flavor    : libxc-fallback
  FFT flavor    : fftw3
  LINALG flavor : mkl
  TIMER flavor  : abinit
  TRIO flavor   : netcdf
 
 === Experimental features === 
  Exports             : no
  GW double-precision : yes
 
 ++++++++++++++++++++++++++++++++++++++++++++++++++++++++++++++++++++++++++++++
 

 ++++++++++++++++++++++++++++++++++++++++++++++++++++++++++++++++++++++++++++++
 Default optimizations:
   -O3


 Optimizations for 43_ptgroups:
   -O0


 ++++++++++++++++++++++++++++++++++++++++++++++++++++++++++++++++++++++++++++++


 ++++++++++++++++++++++++++++++++++++++++++++++++++++++++++++++++++++++++++++++
 CPP options activated during the build:

                  CC_INTEL                   CXX_GNU                  FC_INTEL
 
 HAVE_FC_ALLOCATABLE_DT...             HAVE_FC_ASYNC  HAVE_FC_COMMAND_ARGUMENT
 
        HAVE_FC_CONTIGUOUS           HAVE_FC_CPUTIME             HAVE_FC_ETIME
 
              HAVE_FC_EXIT             HAVE_FC_FLUSH             HAVE_FC_GAMMA
 
            HAVE_FC_GETENV            HAVE_FC_GETPID   HAVE_FC_IEEE_ARITHMETIC
 
   HAVE_FC_IEEE_EXCEPTIONS             HAVE_FC_IOMSG     HAVE_FC_ISO_C_BINDING
 
  HAVE_FC_ISO_FORTRAN_2008        HAVE_FC_LONG_LINES        HAVE_FC_MOVE_ALLOC
 
  HAVE_FC_ON_THE_FLY_SHAPE           HAVE_FC_PRIVATE         HAVE_FC_PROTECTED
 
           HAVE_FC_SHIFTLR         HAVE_FC_STREAM_IO            HAVE_FC_SYSTEM
 
                  HAVE_FFT            HAVE_FFT_FFTW3              HAVE_FFT_MPI
 
           HAVE_FFT_SERIAL               HAVE_GW_DPC        HAVE_LIBPAW_ABINIT
 
      HAVE_LIBTETRA_ABINIT                HAVE_LIBXC               HAVE_LINALG
 
         HAVE_LINALG_AXPBY        HAVE_LINALG_GEMM3M  HAVE_LINALG_MKL_IMATCOPY
 
   HAVE_LINALG_MKL_OMATADD  HAVE_LINALG_MKL_OMATCOPY   HAVE_LINALG_MKL_THREADS
 
        HAVE_LINALG_SERIAL                  HAVE_MPI                 HAVE_MPI2
 
       HAVE_MPI_IALLREDUCE        HAVE_MPI_IALLTOALL       HAVE_MPI_IALLTOALLV
 
           HAVE_MPI_IBCAST         HAVE_MPI_IGATHERV        HAVE_MPI_INTEGER16
 
               HAVE_MPI_IO HAVE_MPI_TYPE_CREATE_S...               HAVE_NETCDF
 
           HAVE_NETCDF_MPI                HAVE_NUMPY             HAVE_OS_LINUX
 
         HAVE_TIMER_ABINIT                  HAVE_XML              USE_MACROAVE
 
 ++++++++++++++++++++++++++++++++++++++++++++++++++++++++++++++++++++++++++++++

- input  file    -> sp.in
- output file    -> sp.out
- root for input  files -> spi
- root for output files -> spo
 
Netcdf library supports MPI-IO
-instrng: 56 lines of input have been read from file sp.in
 

 Please give name of formatted atomic psp file
 For atom type 1, psp file is /CECI/home/ucl/naps/jovbever/.PsP/CTO/Ca.psp8

 Please give name of formatted atomic psp file
 For atom type 2, psp file is /CECI/home/ucl/naps/jovbever/.PsP/CTO/Ti.psp8

 Please give name of formatted atomic psp file
 For atom type 3, psp file is /CECI/home/ucl/naps/jovbever/.PsP/CTO/O.psp8
  read the values zionpsp= 10.0 , pspcod=   8 , lmax=   2
  read the values zionpsp= 12.0 , pspcod=   8 , lmax=   2
  read the values zionpsp=  6.0 , pspcod=   8 , lmax=   2
 
 inpspheads: deduce mpsang = 3, n1xccc = 2501.

======================================================= 
invars1m : enter jdtset= 0
 
 symlatt: the Bravais lattice is oP (primitive orthorhombic)
  xred   is defined in input file
 ingeo: takes atomic coordinates from input array xred
 
 symlatt: the Bravais lattice is oP (primitive orthorhombic)
 
 symlatt: the Bravais lattice is oP (primitive orthorhombic)
 symspgr: spgroup=  62  Pn m a   (=D2h^16)
 
--- !WARNING
src_file: m_mpinfo.F90
src_line: 2286
message: |
    nproc_kpt= 3 >= nkpt= 1* nsppol= 1
    The number of processors is larger than nkpt*nsppol. This is a waste. (Ignore this warning if this is not a GS run)
...
 
 
--- !WARNING
src_file: m_mpi_setup.F90
src_line: 704
message: |
    Your number of spins*k-points (=1) will not distribute correctly
    with the current number of processors (=3).
    You will leave some empty.
    YOU ARE STRONGLY ADVICED TO ACTIVATE AUTOMATIC PARALLELIZATION!
    PUT "AUTOPARAL=1" IN THE INPUT FILE.
...
 
 For input ecut=  4.000000E+01 best grid ngfft=      32      32      45
       max ecut=  4.031551E+01
 
 ==== FFT mesh ====
  FFT mesh divisions ........................    32   32   45
  Augmented FFT divisions ...................    33   33   45
  FFT algorithm .............................   312
  FFT cache size ............................    16
 getmpw: optimal value of mpw= 2763
 
 Symmetries : space group Pn m a (# 62); Bravais oP (primitive ortho.)
 
 getdim_nloc : deduce lmnmax  =  18, lnmax  =   6,
                      lmnmaxso=  18, lnmaxso=   6.
memory: analysis of memory needs
================================================================================
 Values of the parameters that define the memory need of the present run
     intxc =       0    ionmov =       0      iscf =       7    lmnmax =       6
     lnmax =       6     mgfft =      45  mpssoang =       3    mqgrid =    3001
     natom =      20  nloc_mem =       1    nspden =       1   nspinor =       1
    nsppol =       1      nsym =       8    n1xccc =    2501    ntypat =       3
    occopt =       1   xclevel =       1
-    mband =          80        mffmem =           1         mkmem =           1
       mpw =        2763          nfft =       46080          nkpt =           1
================================================================================
P This job should need less than                      19.695 Mbytes of memory.
  Rough estimation (10% accuracy) of disk space for files :
_ WF disk file :      3.375 Mbytes ; DEN or POT disk file :      0.354 Mbytes.
================================================================================
 
 Biggest array : f_fftgr(disk), with      5.6270 MBytes.
 memana : allocated an array of      5.627 Mbytes, for testing purposes.
 memana: allocated      19.695Mbytes, for testing purposes. 
 The job will continue.
--------------------------------------------------------------------------------
------------- Echo of variables that govern the present computation ------------
--------------------------------------------------------------------------------
-
- outvars: echo of selected default values                                      
-   iomode0 =  0 , fftalg0 =312 , wfoptalg0 =  0
-
- outvars: echo of global parameters not present in the input file              
-  max_nthreads =    0
-
 -outvars: echo values of preprocessed input variables --------
 
 These variables are accessible in NetCDF format (spo_OUT.nc)

            acell      5.4040000000E+00  5.5130000000E+00  7.6970000000E+00 Bohr
              amu      4.00780000E+01  4.78800000E+01  1.59994000E+01
             ecut      4.00000000E+01 Hartree
-          fftalg         312
              kpt      2.50000000E-01  2.50000000E-01  2.50000000E-01
         kptrlatt        2    0    0      0    2    0      0    0    2
          kptrlen      1.08080000E+01
P           mkmem           1
            natom          20
            nband          80
            ngfft          32      32      45
             nkpt           1
             nsym           8
           ntypat           3
              occ      2.000000  2.000000  2.000000  2.000000  2.000000  2.000000
                       2.000000  2.000000  2.000000  2.000000  2.000000  2.000000
                       2.000000  2.000000  2.000000  2.000000  2.000000  2.000000
                       2.000000  2.000000  2.000000  2.000000  2.000000  2.000000
                       2.000000  2.000000  2.000000  2.000000  2.000000  2.000000
                       2.000000  2.000000  2.000000  2.000000  2.000000  2.000000
                       2.000000  2.000000  2.000000  2.000000  2.000000  2.000000
                       2.000000  2.000000  2.000000  2.000000  2.000000  2.000000
                       2.000000  2.000000  2.000000  2.000000  2.000000  2.000000
                       2.000000  2.000000  2.000000  2.000000  2.000000  2.000000
                       2.000000  2.000000  2.000000  2.000000  2.000000  2.000000
                       2.000000  2.000000  2.000000  2.000000  2.000000  2.000000
                       2.000000  2.000000  2.000000  2.000000  2.000000  2.000000
                       2.000000  2.000000
           shiftk      5.00000000E-01  5.00000000E-01  5.00000000E-01
          spgroup          62
           symrel      1  0  0   0  1  0   0  0  1      -1  0  0   0 -1  0   0  0 -1
                      -1  0  0   0  1  0   0  0 -1       1  0  0   0 -1  0   0  0  1
                      -1  0  0   0 -1  0   0  0  1       1  0  0   0  1  0   0  0 -1
                       1  0  0   0 -1  0   0  0 -1      -1  0  0   0  1  0   0  0  1
            tnons      0.0000000  0.0000000  0.0000000     0.0000000  0.0000000  0.0000000
                       0.5000000  0.5000000  0.5000000     0.5000000  0.5000000  0.5000000
                       0.0000000  0.0000000  0.5000000     0.0000000  0.0000000  0.5000000
                       0.5000000  0.5000000  0.0000000     0.5000000  0.5000000  0.0000000
           toldfe      1.00000000E-10 Hartree
            typat      1  1  1  1  2  2  2  2  3  3  3  3  3  3  3  3  3  3  3  3
           xangst      2.4307225899E-02  2.7866564940E+00  3.0548077309E+00
                       1.4055295917E+00  1.3279795185E+00  3.0548077309E+00
                       1.4541440435E+00  1.5893744325E+00  1.0182692436E+00
                       2.8353664093E+00  1.3069745700E-01  1.0182692436E+00
                       0.0000000000E+00  1.4586769755E+00  0.0000000000E+00
                       0.0000000000E+00  1.4586769755E+00  2.0365384873E+00
                       1.4298368176E+00  0.0000000000E+00  0.0000000000E+00
                       1.4298368176E+00  0.0000000000E+00  2.0365384873E+00
                       2.2334051091E-01  1.3985794841E+00  1.0182692436E+00
                       5.9338227931E-01  6.0710135719E-01  2.2023127201E+00
                       5.9338227931E-01  6.0710135719E-01  3.9073027417E+00
                       8.3645453830E-01  2.0657783327E+00  3.9073027417E+00
                       8.3645453830E-01  2.0657783327E+00  2.2023127201E+00
                       1.2064963067E+00  2.8572564596E+00  1.0182692436E+00
                       1.6531773285E+00  6.0097491390E-02  3.0548077309E+00
                       2.0232190969E+00  8.5157561828E-01  1.8707642544E+00
                       2.0232190969E+00  8.5157561828E-01  1.6577423286E-01
                       2.2662913559E+00  2.3102525938E+00  1.6577423286E-01
                       2.2662913559E+00  2.3102525938E+00  1.8707642544E+00
                       2.6363331243E+00  1.5187744669E+00  3.0548077309E+00
            xcart      4.5934000000E-02  5.2660176000E+00  5.7727500000E+00
                       2.6560660000E+00  2.5095176000E+00  5.7727500000E+00
                       2.7479340000E+00  3.0034824000E+00  1.9242500000E+00
                       5.3580660000E+00  2.4698240000E-01  1.9242500000E+00
                       0.0000000000E+00  2.7565000000E+00  0.0000000000E+00
                       0.0000000000E+00  2.7565000000E+00  3.8485000000E+00
                       2.7020000000E+00  0.0000000000E+00  0.0000000000E+00
                       2.7020000000E+00  0.0000000000E+00  3.8485000000E+00
                       4.2205240000E-01  2.6429322000E+00  1.9242500000E+00
                       1.1213300000E+00  1.1472553000E+00  4.1617679000E+00
                       1.1213300000E+00  1.1472553000E+00  7.3837321000E+00
                       1.5806700000E+00  3.9037553000E+00  7.3837321000E+00
                       1.5806700000E+00  3.9037553000E+00  4.1617679000E+00
                       2.2799476000E+00  5.3994322000E+00  1.9242500000E+00
                       3.1240524000E+00  1.1356780000E-01  5.7727500000E+00
                       3.8233300000E+00  1.6092447000E+00  3.5352321000E+00
                       3.8233300000E+00  1.6092447000E+00  3.1326790000E-01
                       4.2826700000E+00  4.3657447000E+00  3.1326790000E-01
                       4.2826700000E+00  4.3657447000E+00  3.5352321000E+00
                       4.9819476000E+00  2.8700678000E+00  5.7727500000E+00
             xred      8.5000000000E-03  9.5520000000E-01  7.5000000000E-01
                       4.9150000000E-01  4.5520000000E-01  7.5000000000E-01
                       5.0850000000E-01  5.4480000000E-01  2.5000000000E-01
                       9.9150000000E-01  4.4800000000E-02  2.5000000000E-01
                       0.0000000000E+00  5.0000000000E-01  0.0000000000E+00
                       0.0000000000E+00  5.0000000000E-01  5.0000000000E-01
                       5.0000000000E-01  0.0000000000E+00  0.0000000000E+00
                       5.0000000000E-01  0.0000000000E+00  5.0000000000E-01
                       7.8100000000E-02  4.7940000000E-01  2.5000000000E-01
                       2.0750000000E-01  2.0810000000E-01  5.4070000000E-01
                       2.0750000000E-01  2.0810000000E-01  9.5930000000E-01
                       2.9250000000E-01  7.0810000000E-01  9.5930000000E-01
                       2.9250000000E-01  7.0810000000E-01  5.4070000000E-01
                       4.2190000000E-01  9.7940000000E-01  2.5000000000E-01
                       5.7810000000E-01  2.0600000000E-02  7.5000000000E-01
                       7.0750000000E-01  2.9190000000E-01  4.5930000000E-01
                       7.0750000000E-01  2.9190000000E-01  4.0700000000E-02
                       7.9250000000E-01  7.9190000000E-01  4.0700000000E-02
                       7.9250000000E-01  7.9190000000E-01  4.5930000000E-01
                       9.2190000000E-01  5.2060000000E-01  7.5000000000E-01
            znucl       20.00000   22.00000    8.00000
 
================================================================================
 
 chkinp: Checking input parameters for consistency.
 DATA TYPE INFORMATION: 
 REAL:      Data type name: REAL(DP) 
            Kind value:      8
            Precision:      15
            Smallest nonnegligible quantity relative to 1:  0.22204460E-15
            Smallest positive number:                       0.22250739-307
            Largest representable number:                   0.17976931+309
 INTEGER:   Data type name: INTEGER(default) 
            Kind value: 4
            Bit size:   32
            Largest representable number: 2147483647
 LOGICAL:   Data type name: LOGICAL 
            Kind value: 4
 CHARACTER: Data type name: CHARACTER             Kind value: 1

  ==== OpenMP parallelism is OFF ====
 
  ==== Using MPI-2 specifications ==== 
  MPI-IO support is ON
  xmpi_tag_ub ................   1073741824
  xmpi_bsize_ch ..............            1
  xmpi_bsize_int .............            4
  xmpi_bsize_sp ..............            4
  xmpi_bsize_dp ..............            8
  xmpi_bsize_spc .............            8
  xmpi_bsize_dpc .............           16
  xmpio_bsize_frm ............            4
  xmpi_address_kind ..........            8
  xmpi_offset_kind ...........            8
  MPI_WTICK ..................   1.000000000000000E-006
 
================================================================================
== DATASET  1 ==================================================================
-   nproc =    3   -> not optimal: autoparal keyword recommended in input file
 
 
--- !COMMENT
src_file: m_xgScalapack.F90
src_line: 237
message: |
    xgScalapack in auto mode
...
 
 
 getdim_nloc : deduce lmnmax  =  18, lnmax  =   6,
                      lmnmaxso=  18, lnmaxso=   6.
 Exchange-correlation functional for the present dataset will be:
  LDA: new Teter (4/93) with spin-polarized option - ixc=1
 Citation for XC functional:
  S. Goedecker, M. Teter, J. Huetter, PRB 54, 1703 (1996)
 
 Unit cell volume ucvol=  2.2931096E+02 bohr^3
 Angles (23,13,12)=  9.00000000E+01  9.00000000E+01  9.00000000E+01 degrees
 
 getcut: wavevector=  0.0000  0.0000  0.0000  ngfft=  32  32  45
         ecut(hartree)=     40.000   => boxcut(ratio)=   2.00787
- pspini: atom type   1  psp file is /CECI/home/ucl/naps/jovbever/.PsP/CTO/Ca.psp8
- pspatm: opening atomic psp file    /CECI/home/ucl/naps/jovbever/.PsP/CTO/Ca.psp8
- Ca    ONCVPSP-3.2.3.1  r_core=   1.45885   1.45885   1.85192
- 20.00000  10.00000    170504                znucl, zion, pspdat
    8   11    2    4       400   0.00000      pspcod,pspxc,lmax,lloc,mmax,r2well
 
--- !WARNING
src_file: m_pspini.F90
src_line: 1073
message: |
    Pseudopotential file pspxc= 11,
    not equal to input ixc= 1.
    These parameters must agree to get the same xc 
    in ABINIT code as in psp construction.
    Action: check psp design or input file.
    Assume experienced user. Execution will continue.
...
 
    3.99000000000000    6.00000000000000    0.00000000000000   rchrg,fchrg,qchrg
     nproj     2     2     2
     extension_switch     1
  valence charge integrates to:    9.09063937994142     
  pspatm : epsatm=   12.33414111
         --- l  ekb(1:nproj) -->
             0   10.063789    0.972391
             1    3.049878    0.471799
             2   -3.406671   -1.078890
 pspatm: atomic psp has been read  and splines computed
 
- pspini: atom type   2  psp file is /CECI/home/ucl/naps/jovbever/.PsP/CTO/Ti.psp8
- pspatm: opening atomic psp file    /CECI/home/ucl/naps/jovbever/.PsP/CTO/Ti.psp8
- Ti    ONCVPSP-3.2.3.1  r_core=   1.35825   1.31050   1.66360
- 22.00000  12.00000    170504                znucl, zion, pspdat
    8   11    2    4       600   0.00000      pspcod,pspxc,lmax,lloc,mmax,r2well
 
--- !WARNING
src_file: m_pspini.F90
src_line: 1073
message: |
    Pseudopotential file pspxc= 11,
    not equal to input ixc= 1.
    These parameters must agree to get the same xc 
    in ABINIT code as in psp construction.
    Action: check psp design or input file.
    Assume experienced user. Execution will continue.
...
 
    5.99000000000000    2.50000000000000    0.00000000000000   rchrg,fchrg,qchrg
     nproj     2     2     2
     extension_switch     1
  valence charge integrates to:    11.8891845495734     
  pspatm : epsatm=   14.68144390
         --- l  ekb(1:nproj) -->
             0   11.362348    1.263639
             1    1.975402   -0.084666
             2   -5.186090   -1.477451
 pspatm: atomic psp has been read  and splines computed
 
- pspini: atom type   3  psp file is /CECI/home/ucl/naps/jovbever/.PsP/CTO/O.psp8
- pspatm: opening atomic psp file    /CECI/home/ucl/naps/jovbever/.PsP/CTO/O.psp8
- O     ONCVPSP-3.2.3.1  r_core=   1.35509   1.45563   1.26150
-  8.00000   6.00000    170504                znucl, zion, pspdat
    8   11    2    4       600   0.00000      pspcod,pspxc,lmax,lloc,mmax,r2well
 
--- !WARNING
src_file: m_pspini.F90
src_line: 1073
message: |
    Pseudopotential file pspxc= 11,
    not equal to input ixc= 1.
    These parameters must agree to get the same xc 
    in ABINIT code as in psp construction.
    Action: check psp design or input file.
    Assume experienced user. Execution will continue.
...
 
    5.99000000000000    4.00000000000000    0.00000000000000   rchrg,fchrg,qchrg
     nproj     2     2     1
     extension_switch     1
  valence charge integrates to:    5.99903187524054     
  pspatm : epsatm=    6.19546011
         --- l  ekb(1:nproj) -->
             0    6.056735    0.824024
             1   -4.717130   -1.149271
             2   -1.331955
 pspatm: atomic psp has been read  and splines computed
 
   2.91852578E+04                                ecore*ucvol(ha*bohr**3)
 ==== Info on pseudopotentials ====
  Norm-conserving pseudopotentials
  Number of pseudopotentials ..    3
  Number of types of atoms   ..    3
  Scalar calculation (no spin-orbit term)
  Nonlocal part applied using Legendre polynomials
  Max number of non-local projectors over l and type   2
  Highest angular momentum +1 .......   3
  Max number of (l,n)   components ..   6
  Max number of (l,m,n) components ..   6
 
 Pseudo-Core Charge Info: 
   Number of radial points for pseudo-core charge .. 2501
   XC core-correction treatment (optnlxccc) ........    1
   Radius for pseudo-core charge for each type ..... 
 
  - Atom type    1 has pseudo-core radius ..  3.9900
  - Atom type    2 has pseudo-core radius ..  5.9900
  - Atom type    3 has pseudo-core radius ..  5.9900
 
 Info on the Q-grid used for form factors in spline form: 
   Number of q-points for radial functions ffspl ..   3001
   Number of q-points for vlspl ...................   3001
   vloc is computed in Reciprocal Space
   model core charge treated in real-space
 
  XC functional for type 1 is 11
  Pseudo valence available: yes
  XC functional for type 2 is 11
  Pseudo valence available: yes
  XC functional for type 3 is 11
  Pseudo valence available: yes
 
 wfconv:    80 bands initialized randomly with npw=  2763, for ikpt=     1
_setup2: Arith. and geom. avg. npw (full set) are    2763.000    2763.000
 initro: for itypat=  1, take pseudo charge density from pp file
 initro: for itypat=  2, take pseudo charge density from pp file
 initro: for itypat=  3, take pseudo charge density from pp file
 
================================================================================
 
 getcut: wavevector=  0.0000  0.0000  0.0000  ngfft=  32  32  45
         ecut(hartree)=     40.000   => boxcut(ratio)=   2.00787
 
 ITER STEP NUMBER     1
 vtorho: nnsclo_now=2, note that nnsclo,dbl_nnsclo,istep=0 0 1
 
--- !WARNING
src_file: m_vtorho.F90
src_line: 1699
message: |
    For k-point number 1,
    The minimal occupation factor is  2.000.
    An adequate monitoring of convergence requires it to be  at most 0.01_dp.
    Action: increase slightly the number of bands.
...
 
 Total charge density [el/Bohr^3]
      Maximum=    1.8557E+00  at reduced coord.    0.0000    0.5938    0.5556
      Minimum=    7.7385E-02  at reduced coord.    0.0000    0.0313    0.2444
   Integrated=    1.6000E+02
 ETOT  1  -535.71582167895    -5.357E+02 2.063E-01 1.122E+03
 scprqt: <Vxc>= -9.4174922E-01 hartree
 
 Simple mixing update:
  residual square of the potential:    730.365715891234
 scfcv_core: previous iteration took  5.31 [s]
 
 ITER STEP NUMBER     2
 vtorho: nnsclo_now=2, note that nnsclo,dbl_nnsclo,istep=0 0 2
 
--- !WARNING
src_file: m_vtorho.F90
src_line: 1699
message: |
    For k-point number 1,
    The minimal occupation factor is  2.000.
    An adequate monitoring of convergence requires it to be  at most 0.01_dp.
    Action: increase slightly the number of bands.
...
 
 Total charge density [el/Bohr^3]
      Maximum=    1.7210E+00  at reduced coord.    0.0000    0.5938    0.5556
      Minimum=    8.0306E-02  at reduced coord.    0.0000    0.0313    0.2444
   Integrated=    1.6000E+02
 ETOT  2  -537.19012976413    -1.474E+00 1.629E-02 7.021E+02
 scprqt: <Vxc>= -9.4682705E-01 hartree
 
 Pulay update with  1 previous iterations:
 mixing of old trial potential: alpha(m:m-4)=  0.578      0.422
 scfcv_core: previous iteration took  4.74 [s]
 
 ITER STEP NUMBER     3
 vtorho: nnsclo_now=1, note that nnsclo,dbl_nnsclo,istep=0 0 3
 
--- !WARNING
src_file: m_vtorho.F90
src_line: 1699
message: |
    For k-point number 1,
    The minimal occupation factor is  2.000.
    An adequate monitoring of convergence requires it to be  at most 0.01_dp.
    Action: increase slightly the number of bands.
...
 
 Total charge density [el/Bohr^3]
      Maximum=    1.8202E+00  at reduced coord.    0.0000    0.5938    0.5556
      Minimum=    7.8069E-02  at reduced coord.    0.0000    0.0313    0.2444
   Integrated=    1.6000E+02
 ETOT  3  -537.51109752124    -3.210E-01 1.316E-02 5.232E+01
 scprqt: <Vxc>= -9.4564803E-01 hartree
 
 Pulay update with  2 previous iterations:
 mixing of old trial potential: alpha(m:m-4)=  0.609      0.275      0.116
 scfcv_core: previous iteration took  2.39 [s]
 
 ITER STEP NUMBER     4
 vtorho: nnsclo_now=1, note that nnsclo,dbl_nnsclo,istep=0 0 4
 
--- !WARNING
src_file: m_vtorho.F90
src_line: 1699
message: |
    For k-point number 1,
    The minimal occupation factor is  2.000.
    An adequate monitoring of convergence requires it to be  at most 0.01_dp.
    Action: increase slightly the number of bands.
...
 
 Total charge density [el/Bohr^3]
      Maximum=    1.7877E+00  at reduced coord.    0.0000    0.5938    0.5556
      Minimum=    7.8647E-02  at reduced coord.    0.0000    0.0313    0.2444
   Integrated=    1.6000E+02
 ETOT  4  -537.58115312735    -7.006E-02 6.025E-03 1.569E+00
 scprqt: <Vxc>= -9.4565438E-01 hartree
 
 Pulay update with  3 previous iterations:
 mixing of old trial potential: alpha(m:m-4)=  0.647      0.241      0.767E-01  0.355E-01
 scfcv_core: previous iteration took  2.42 [s]
 
 ITER STEP NUMBER     5
 vtorho: nnsclo_now=1, note that nnsclo,dbl_nnsclo,istep=0 0 5
 
--- !WARNING
src_file: m_vtorho.F90
src_line: 1699
message: |
    For k-point number 1,
    The minimal occupation factor is  2.000.
    An adequate monitoring of convergence requires it to be  at most 0.01_dp.
    Action: increase slightly the number of bands.
...
 
 Total charge density [el/Bohr^3]
      Maximum=    1.7960E+00  at reduced coord.    0.0000    0.5938    0.5556
      Minimum=    7.8750E-02  at reduced coord.    0.0000    0.0313    0.2444
   Integrated=    1.6000E+02
 ETOT  5  -537.61088672253    -2.973E-02 4.458E-03 7.866E-01
 scprqt: <Vxc>= -9.4566025E-01 hartree
 
 Pulay update with  4 previous iterations:
 mixing of old trial potential: alpha(m:m-4)=   1.16     -0.111     -0.822E-01  0.248E-01  0.622E-02
 scfcv_core: previous iteration took  2.40 [s]
 
 ITER STEP NUMBER     6
 vtorho: nnsclo_now=1, note that nnsclo,dbl_nnsclo,istep=0 0 6
 Total charge density [el/Bohr^3]
      Maximum=    1.7898E+00  at reduced coord.    0.0000    0.5938    0.5556
      Minimum=    7.8893E-02  at reduced coord.    0.0000    0.0313    0.2444
   Integrated=    1.6000E+02
 ETOT  6  -537.63025910813    -1.937E-02 2.854E-03 5.395E-01
 scprqt: <Vxc>= -9.4565958E-01 hartree
 
 Pulay update with  5 previous iterations:
 mixing of old trial potential: alpha(m:m-4)=  0.678      0.330     -0.224E-01  0.159E-01 -0.198E-02
 scfcv_core: previous iteration took  2.40 [s]
 
 ITER STEP NUMBER     7
 vtorho: nnsclo_now=1, note that nnsclo,dbl_nnsclo,istep=0 0 7
 Total charge density [el/Bohr^3]
      Maximum=    1.7916E+00  at reduced coord.    0.0000    0.5938    0.5556
      Minimum=    7.8843E-02  at reduced coord.    0.0000    0.0313    0.2444
   Integrated=    1.6000E+02
 ETOT  7  -537.64371684456    -1.346E-02 2.316E-03 1.230E-01
 scprqt: <Vxc>= -9.4568834E-01 hartree
 
 Pulay update with  6 previous iterations:
 mixing of old trial potential: alpha(m:m-4)=  0.530      0.497     -0.906E-01  0.218E-01  0.367E-01
 scfcv_core: previous iteration took  2.40 [s]
 
 ITER STEP NUMBER     8
 vtorho: nnsclo_now=1, note that nnsclo,dbl_nnsclo,istep=0 0 8
 Total charge density [el/Bohr^3]
      Maximum=    1.7918E+00  at reduced coord.    0.0000    0.5938    0.5556
      Minimum=    7.8826E-02  at reduced coord.    0.0000    0.0313    0.2444
   Integrated=    1.6000E+02
 ETOT  8  -537.65284299882    -9.126E-03 1.471E-03 6.782E-02
 scprqt: <Vxc>= -9.4567478E-01 hartree
 
 Pulay update with  7 previous iterations:
 mixing of old trial potential: alpha(m:m-4)=  -1.59       1.52       1.07      0.111E-01 -0.660E-01
 scfcv_core: previous iteration took  2.41 [s]
 
 ITER STEP NUMBER     9
 vtorho: nnsclo_now=1, note that nnsclo,dbl_nnsclo,istep=0 0 9
 Total charge density [el/Bohr^3]
      Maximum=    1.7924E+00  at reduced coord.    0.0000    0.5938    0.5556
      Minimum=    7.8821E-02  at reduced coord.    0.0000    0.0313    0.2444
   Integrated=    1.6000E+02
 ETOT  9  -537.65878807776    -5.945E-03 1.207E-03 6.589E-01
 scprqt: <Vxc>= -9.4569622E-01 hartree
 
 Pulay update with  7 previous iterations:
 mixing of old trial potential: alpha(m:m-4)= -0.363       1.10      0.148      0.226     -0.134
 scfcv_core: previous iteration took  2.40 [s]
 
 ITER STEP NUMBER    10
 vtorho: nnsclo_now=1, note that nnsclo,dbl_nnsclo,istep=0 0 10
 Total charge density [el/Bohr^3]
      Maximum=    1.7926E+00  at reduced coord.    0.0000    0.5938    0.5556
      Minimum=    7.8785E-02  at reduced coord.    0.0000    0.0313    0.2444
   Integrated=    1.6000E+02
 ETOT 10  -537.66310994037    -4.322E-03 6.869E-04 4.307E-01
 scprqt: <Vxc>= -9.4568923E-01 hartree
 
 Pulay update with  7 previous iterations:
 mixing of old trial potential: alpha(m:m-4)=  0.233     -0.442       1.24     -0.105      0.934E-01
 scfcv_core: previous iteration took  2.40 [s]
 
 ITER STEP NUMBER    11
 vtorho: nnsclo_now=1, note that nnsclo,dbl_nnsclo,istep=0 0 11
 Total charge density [el/Bohr^3]
      Maximum=    1.7924E+00  at reduced coord.    0.0000    0.5938    0.5556
      Minimum=    7.8774E-02  at reduced coord.    0.0000    0.0313    0.2444
   Integrated=    1.6000E+02
 ETOT 11  -537.66589221236    -2.782E-03 6.792E-04 5.267E-01
 scprqt: <Vxc>= -9.4570346E-01 hartree
 
 Pulay update with  7 previous iterations:
 mixing of old trial potential: alpha(m:m-4)=  0.206     -0.327E-01 -0.434       1.38     -0.169
 scfcv_core: previous iteration took  2.41 [s]
 
 ITER STEP NUMBER    12
 vtorho: nnsclo_now=1, note that nnsclo,dbl_nnsclo,istep=0 0 12
 Total charge density [el/Bohr^3]
      Maximum=    1.7931E+00  at reduced coord.    0.0000    0.5938    0.5556
      Minimum=    7.8750E-02  at reduced coord.    0.0000    0.0313    0.2444
   Integrated=    1.6000E+02
 ETOT 12  -537.66783682066    -1.945E-03 3.946E-04 6.171E-01
 scprqt: <Vxc>= -9.4570096E-01 hartree
 
 Pulay update with  7 previous iterations:
 mixing of old trial potential: alpha(m:m-4)= -0.677      0.641      0.386     -0.441       1.28
 scfcv_core: previous iteration took  2.40 [s]
 
 ITER STEP NUMBER    13
 vtorho: nnsclo_now=1, note that nnsclo,dbl_nnsclo,istep=0 0 13
 Total charge density [el/Bohr^3]
      Maximum=    1.7936E+00  at reduced coord.    0.0000    0.5938    0.5556
      Minimum=    7.8729E-02  at reduced coord.    0.0000    0.0313    0.2444
   Integrated=    1.6000E+02
 ETOT 13  -537.66907332757    -1.237E-03 4.023E-04 9.131E-01
 scprqt: <Vxc>= -9.4570808E-01 hartree
 
 Pulay update with  7 previous iterations:
 mixing of old trial potential: alpha(m:m-4)=  -1.12       1.71      0.974      -1.30     -0.384
 scfcv_core: previous iteration took  2.45 [s]
 
 ITER STEP NUMBER    14
 vtorho: nnsclo_now=1, note that nnsclo,dbl_nnsclo,istep=0 0 14
 Total charge density [el/Bohr^3]
      Maximum=    1.7932E+00  at reduced coord.    0.0000    0.5938    0.5556
      Minimum=    7.8725E-02  at reduced coord.    0.0000    0.0313    0.2444
   Integrated=    1.6000E+02
 ETOT 14  -537.67018997354    -1.117E-03 2.230E-04 5.712E-01
 scprqt: <Vxc>= -9.4571008E-01 hartree
 
 Pulay update with  7 previous iterations:
 mixing of old trial potential: alpha(m:m-4)=   1.32      -4.58       6.46       1.96      -4.81
 scfcv_core: previous iteration took  2.37 [s]
 
 ITER STEP NUMBER    15
 vtorho: nnsclo_now=1, note that nnsclo,dbl_nnsclo,istep=0 0 15
 Total charge density [el/Bohr^3]
      Maximum=    1.7907E+00  at reduced coord.    0.0000    0.5938    0.5556
      Minimum=    7.8781E-02  at reduced coord.    0.0000    0.0313    0.2444
   Integrated=    1.6000E+02
 ETOT 15  -537.67103915105    -8.492E-04 2.020E-04 8.159E-02
 scprqt: <Vxc>= -9.4572033E-01 hartree
 
 Pulay update with  7 previous iterations:
 mixing of old trial potential: alpha(m:m-4)=  0.151      -1.11      0.382       2.44      -1.11
 scfcv_core: previous iteration took  2.50 [s]
 
 ITER STEP NUMBER    16
 vtorho: nnsclo_now=1, note that nnsclo,dbl_nnsclo,istep=0 0 16
 Total charge density [el/Bohr^3]
      Maximum=    1.7944E+00  at reduced coord.    0.0000    0.5938    0.5556
      Minimum=    7.8696E-02  at reduced coord.    0.0000    0.0313    0.2444
   Integrated=    1.6000E+02
 ETOT 16  -537.67108610763    -4.696E-05 1.639E-04 1.221E+00
 scprqt: <Vxc>= -9.4571819E-01 hartree
 
 Pulay update with  7 previous iterations:
 mixing of old trial potential: alpha(m:m-4)=   1.25       1.42      -1.96      -2.93       9.15
 scfcv_core: previous iteration took  2.41 [s]
 
 ITER STEP NUMBER    17
 vtorho: nnsclo_now=1, note that nnsclo,dbl_nnsclo,istep=0 0 17
 Total charge density [el/Bohr^3]
      Maximum=    1.7903E+00  at reduced coord.    0.0000    0.5938    0.5556
      Minimum=    7.8774E-02  at reduced coord.    0.0000    0.0313    0.2444
   Integrated=    1.6000E+02
 ETOT 17  -537.67187431601    -7.882E-04 9.574E-05 1.698E-01
 scprqt: <Vxc>= -9.4572605E-01 hartree
 
 Pulay update with  7 previous iterations:
 mixing of old trial potential: alpha(m:m-4)=  0.606       1.11      0.290      0.579E-01  -3.48
 scfcv_core: previous iteration took  2.40 [s]
 
 ITER STEP NUMBER    18
 vtorho: nnsclo_now=1, note that nnsclo,dbl_nnsclo,istep=0 0 18
 Total charge density [el/Bohr^3]
      Maximum=    1.7901E+00  at reduced coord.    0.0000    0.5938    0.5556
      Minimum=    7.8783E-02  at reduced coord.    0.0000    0.0313    0.2444
   Integrated=    1.6000E+02
 ETOT 18  -537.67212438797    -2.501E-04 8.520E-05 2.139E-01
 scprqt: <Vxc>= -9.4573404E-01 hartree
 
 Pulay update with  7 previous iterations:
 mixing of old trial potential: alpha(m:m-4)=   1.49      0.345E-03  0.316     -0.700       1.18
 scfcv_core: previous iteration took  2.40 [s]
 
 ITER STEP NUMBER    19
 vtorho: nnsclo_now=1, note that nnsclo,dbl_nnsclo,istep=0 0 19
 Total charge density [el/Bohr^3]
      Maximum=    1.7887E+00  at reduced coord.    0.0000    0.5938    0.5556
      Minimum=    7.8814E-02  at reduced coord.    0.0000    0.0313    0.2444
   Integrated=    1.6000E+02
 ETOT 19  -537.67206279479     6.159E-05 4.308E-05 7.905E-01
 scprqt: <Vxc>= -9.4573619E-01 hartree
 
 Pulay update with  7 previous iterations:
 mixing of old trial potential: alpha(m:m-4)=  -1.71      0.828       1.04      0.807       1.08
 scfcv_core: previous iteration took  2.41 [s]
 
 ITER STEP NUMBER    20
 vtorho: nnsclo_now=1, note that nnsclo,dbl_nnsclo,istep=0 0 20
 Total charge density [el/Bohr^3]
      Maximum=    1.7934E+00  at reduced coord.    0.0000    0.5938    0.5556
      Minimum=    7.8708E-02  at reduced coord.    0.0000    0.0313    0.2444
   Integrated=    1.6000E+02
 ETOT 20  -537.67232714293    -2.643E-04 8.917E-05 5.155E-01
 scprqt: <Vxc>= -9.4573263E-01 hartree
 
 Pulay update with  7 previous iterations:
 mixing of old trial potential: alpha(m:m-4)= -0.187      -3.22       3.08       2.35      -1.29
 scfcv_core: previous iteration took  2.40 [s]
 
 ITER STEP NUMBER    21
 vtorho: nnsclo_now=1, note that nnsclo,dbl_nnsclo,istep=0 0 21
 Total charge density [el/Bohr^3]
      Maximum=    1.7913E+00  at reduced coord.    0.0000    0.5938    0.5556
      Minimum=    7.8760E-02  at reduced coord.    0.0000    0.0313    0.2444
   Integrated=    1.6000E+02
 ETOT 21  -537.67267199455    -3.449E-04 3.120E-05 8.311E-03
 scprqt: <Vxc>= -9.4573674E-01 hartree
 
 Pulay update with  7 previous iterations:
 mixing of old trial potential: alpha(m:m-4)=  0.854     -0.896      -1.42      0.951       1.25
 scfcv_core: previous iteration took  2.41 [s]
 
 ITER STEP NUMBER    22
 vtorho: nnsclo_now=1, note that nnsclo,dbl_nnsclo,istep=0 0 22
 Total charge density [el/Bohr^3]
      Maximum=    1.7920E+00  at reduced coord.    0.0000    0.5938    0.5556
      Minimum=    7.8733E-02  at reduced coord.    0.0000    0.0313    0.2444
   Integrated=    1.6000E+02
 ETOT 22  -537.67274619785    -7.420E-05 4.008E-05 3.647E-02
 scprqt: <Vxc>= -9.4573870E-01 hartree
 
 Pulay update with  7 previous iterations:
 mixing of old trial potential: alpha(m:m-4)=  0.576      0.409      -1.03     -0.718     -0.521E-01
 scfcv_core: previous iteration took  2.41 [s]
 
 ITER STEP NUMBER    23
 vtorho: nnsclo_now=1, note that nnsclo,dbl_nnsclo,istep=0 0 23
 Total charge density [el/Bohr^3]
      Maximum=    1.7919E+00  at reduced coord.    0.0000    0.5938    0.5556
      Minimum=    7.8740E-02  at reduced coord.    0.0000    0.0313    0.2444
   Integrated=    1.6000E+02
 ETOT 23  -537.67281974520    -7.355E-05 1.442E-05 1.858E-02
 scprqt: <Vxc>= -9.4573758E-01 hartree
 
 Pulay update with  7 previous iterations:
 mixing of old trial potential: alpha(m:m-4)=   1.21     -0.800      0.428     -0.740      -1.26
 scfcv_core: previous iteration took  2.41 [s]
 
 ITER STEP NUMBER    24
 vtorho: nnsclo_now=1, note that nnsclo,dbl_nnsclo,istep=0 0 24
 Total charge density [el/Bohr^3]
      Maximum=    1.7919E+00  at reduced coord.    0.0000    0.5938    0.5556
      Minimum=    7.8732E-02  at reduced coord.    0.0000    0.0313    0.2444
   Integrated=    1.6000E+02
 ETOT 24  -537.67286421602    -4.447E-05 1.985E-05 1.414E-02
 scprqt: <Vxc>= -9.4573931E-01 hartree
 
 Pulay update with  7 previous iterations:
 mixing of old trial potential: alpha(m:m-4)=   2.32      0.539      -2.60      0.538     -0.156
 scfcv_core: previous iteration took  2.40 [s]
 
 ITER STEP NUMBER    25
 vtorho: nnsclo_now=1, note that nnsclo,dbl_nnsclo,istep=0 0 25
 Total charge density [el/Bohr^3]
      Maximum=    1.7917E+00  at reduced coord.    0.0000    0.5938    0.5556
      Minimum=    7.8743E-02  at reduced coord.    0.0000    0.0313    0.2444
   Integrated=    1.6000E+02
 ETOT 25  -537.67290199660    -3.778E-05 6.518E-06 7.210E-04
 scprqt: <Vxc>= -9.4573694E-01 hartree
 
 Pulay update with  7 previous iterations:
 mixing of old trial potential: alpha(m:m-4)=  0.920      0.851      0.289      -1.17      0.451E-01
 scfcv_core: previous iteration took  2.41 [s]
 
 ITER STEP NUMBER    26
 vtorho: nnsclo_now=1, note that nnsclo,dbl_nnsclo,istep=0 0 26
 Total charge density [el/Bohr^3]
      Maximum=    1.7917E+00  at reduced coord.    0.0000    0.5938    0.5556
      Minimum=    7.8740E-02  at reduced coord.    0.0000    0.0313    0.2444
   Integrated=    1.6000E+02
 ETOT 26  -537.67292398113    -2.198E-05 9.659E-06 3.365E-05
 scprqt: <Vxc>= -9.4573687E-01 hartree
 
 Pulay update with  7 previous iterations:
 mixing of old trial potential: alpha(m:m-4)=  0.527      0.443      0.193      0.339     -0.542
 scfcv_core: previous iteration took  2.40 [s]
 
 ITER STEP NUMBER    27
 vtorho: nnsclo_now=1, note that nnsclo,dbl_nnsclo,istep=0 0 27
 Total charge density [el/Bohr^3]
      Maximum=    1.7917E+00  at reduced coord.    0.0000    0.5938    0.5556
      Minimum=    7.8741E-02  at reduced coord.    0.0000    0.0313    0.2444
   Integrated=    1.6000E+02
 ETOT 27  -537.67293935279    -1.537E-05 3.174E-06 3.734E-05
 scprqt: <Vxc>= -9.4573701E-01 hartree
 
 Pulay update with  7 previous iterations:
 mixing of old trial potential: alpha(m:m-4)=  0.838      0.542E-01  0.974E-01 -0.221E-02  0.218
 scfcv_core: previous iteration took  2.41 [s]
 
 ITER STEP NUMBER    28
 vtorho: nnsclo_now=1, note that nnsclo,dbl_nnsclo,istep=0 0 28
 Total charge density [el/Bohr^3]
      Maximum=    1.7918E+00  at reduced coord.    0.0000    0.5938    0.5556
      Minimum=    7.8735E-02  at reduced coord.    0.0000    0.0313    0.2444
   Integrated=    1.6000E+02
 ETOT 28  -537.67295014494    -1.079E-05 4.903E-06 2.043E-04
 scprqt: <Vxc>= -9.4573810E-01 hartree
 
 Pulay update with  7 previous iterations:
 mixing of old trial potential: alpha(m:m-4)=  0.966      0.180     -0.192      0.160     -0.208
 scfcv_core: previous iteration took  2.40 [s]
 
 ITER STEP NUMBER    29
 vtorho: nnsclo_now=1, note that nnsclo,dbl_nnsclo,istep=0 0 29
 Total charge density [el/Bohr^3]
      Maximum=    1.7918E+00  at reduced coord.    0.0000    0.5938    0.5556
      Minimum=    7.8736E-02  at reduced coord.    0.0000    0.0313    0.2444
   Integrated=    1.6000E+02
 ETOT 29  -537.67295803615    -7.891E-06 1.596E-06 2.053E-05
 scprqt: <Vxc>= -9.4573797E-01 hartree
 
 Pulay update with  7 previous iterations:
 mixing of old trial potential: alpha(m:m-4)=   1.03     -0.201E-02 -0.102      0.427E-01  0.643E-01
 scfcv_core: previous iteration took  2.41 [s]
 
 ITER STEP NUMBER    30
 vtorho: nnsclo_now=1, note that nnsclo,dbl_nnsclo,istep=0 0 30
 Total charge density [el/Bohr^3]
      Maximum=    1.7918E+00  at reduced coord.    0.0000    0.5938    0.5556
      Minimum=    7.8732E-02  at reduced coord.    0.0000    0.0313    0.2444
   Integrated=    1.6000E+02
 ETOT 30  -537.67296353008    -5.494E-06 2.495E-06 7.913E-05
 scprqt: <Vxc>= -9.4573879E-01 hartree
 
 Pulay update with  7 previous iterations:
 mixing of old trial potential: alpha(m:m-4)=  0.793      0.886     -0.425     -0.285      0.232E-01
 
 Cartesian components of stress tensor (hartree/bohr^3)
  sigma(1 1)= -3.37792733E-01  sigma(3 2)=  0.00000000E+00
  sigma(2 2)= -3.30447802E-01  sigma(3 1)=  0.00000000E+00
  sigma(3 3)= -3.45033194E-01  sigma(2 1)=  0.00000000E+00
 

--- !ScfConvergenceWarning
message: |
    nstep 30 was not enough SCF cycles to converge.
...
 
 scprqt:  WARNING -
  nstep=   30 was not enough SCF cycles to converge;
  maximum energy difference=  5.494E-06 exceeds toldfe=  1.000E-10
 
 
   fftdatar_write: About to write data to: spo_DEN with iomode: IO_MODE_FORTRAN
 IO operation completed. cpu:  0.00 [s] , wall:  0.02 [s]
- Creating HDf5 file with MPI-IO support: spo_GSR.nc
================================================================================
 
 ----iterations are completed or convergence reached----
 
 
 === Gap info ===
Not enough states to calculate the band gap.
 Mean square residual over all n,k,spin=   31.244E-09; max=  24.951E-07
   0.2500  0.2500  0.2500    1  2.49508E-06 kpt; spin; max resid(k); each band:
  2.66E-11 2.33E-11 1.92E-11 1.69E-11 2.82E-11 2.98E-11 2.77E-11 2.79E-11
  1.96E-11 2.06E-11 2.80E-11 1.49E-11 1.92E-11 1.43E-11 1.52E-11 1.48E-11
  2.77E-11 2.51E-11 2.82E-11 2.28E-11 2.99E-11 1.99E-11 2.11E-11 2.57E-11
  2.50E-11 2.54E-11 2.39E-11 1.81E-11 2.39E-11 2.42E-11 2.05E-11 2.61E-11
  2.27E-11 1.37E-11 2.61E-11 2.19E-11 2.54E-11 2.56E-11 2.16E-11 3.23E-11
  2.36E-11 1.92E-11 2.12E-11 2.63E-11 2.93E-11 2.02E-11 1.63E-11 2.19E-11
  2.81E-11 2.87E-11 2.73E-11 2.19E-11 2.53E-11 2.00E-11 2.70E-11 2.66E-11
  2.83E-11 2.44E-11 2.88E-11 2.87E-11 2.21E-11 2.68E-11 2.77E-11 2.87E-11
  3.13E-11 2.48E-11 2.93E-11 4.29E-11 4.92E-11 4.58E-11 8.60E-11 7.96E-11
  7.45E-11 9.41E-11 8.99E-11 9.35E-11 1.65E-10 3.11E-10 1.72E-09 2.50E-06
 
   outwf: writing wavefunctions to: spo_WFK with iomode: IO_MODE_FORTRAN_MASTER
 WFK output completed. cpu:  0.01 [s] , wall:  0.01 [s]
 prteigrs : about to open file spo_EIG
 Fermi (or HOMO) energy (hartree) =   2.38498   Average Vxc (hartree)=  -0.94574
 Eigenvalues (hartree) for nkpt=   1  k points:
 kpt#   1, nband= 80, wtk=  1.00000, kpt=  0.2500  0.2500  0.2500 (reduced coord)
  -0.81531   -0.75216   -0.73037   -0.68497   -0.28991   -0.27407   -0.18195   -0.17902
  -0.12610   -0.09974   -0.05934   -0.02319   -0.00004    0.05287    0.06077    0.10598
   0.20214    0.32315    0.33754    0.46068    0.48193    0.51687    0.58567    0.63598
   0.67169    0.68075    0.70843    0.75732    0.78189    0.80336    0.82236    0.84471
   0.84569    0.88700    0.92754    0.95858    0.98352    1.01399    1.04246    1.05646
   1.13355    1.16047    1.19638    1.22931    1.25252    1.30676    1.34547    1.38090
   1.41108    1.44926    1.47914    1.53554    1.59542    1.61312    1.67267    1.69672
   1.71922    1.78483    1.79269    1.80842    1.81733    1.88210    1.89856    1.91934
   1.93206    1.98898    2.00911    2.07702    2.10559    2.15012    2.17335    2.19991
   2.21131    2.23922    2.24938    2.25598    2.27436    2.30625    2.35069    2.38498
 Total charge density [el/Bohr^3]
      Maximum=    1.7918E+00  at reduced coord.    0.0000    0.5938    0.5556
 Next maximum=    1.7918E+00  at reduced coord.    0.5000    0.0938    0.5556
      Minimum=    7.8732E-02  at reduced coord.    0.0000    0.0313    0.2444
 Next minimum=    7.8732E-02  at reduced coord.    0.5000    0.5313    0.2444
   Integrated=    1.6000E+02
 
 Cartesian components of stress tensor (hartree/bohr^3)
  sigma(1 1)= -3.37792733E-01  sigma(3 2)=  0.00000000E+00
  sigma(2 2)= -3.30447802E-01  sigma(3 1)=  0.00000000E+00
  sigma(3 3)= -3.45033194E-01  sigma(2 1)=  0.00000000E+00
 
-Cartesian components of stress tensor (GPa)         [Pressure=  9.9372E+03 GPa]
- sigma(1 1)= -9.93820364E+03  sigma(3 2)=  0.00000000E+00
- sigma(2 2)= -9.72210834E+03  sigma(3 1)=  0.00000000E+00
- sigma(3 3)= -1.01512253E+04  sigma(2 1)=  0.00000000E+00
 
== END DATASET(S) ==============================================================
================================================================================
  
 -outvars: echo values of variables after computation  --------
 
 These variables are accessible in NetCDF format (spo_OUT.nc)

            acell      5.4040000000E+00  5.5130000000E+00  7.6970000000E+00 Bohr
              amu      4.00780000E+01  4.78800000E+01  1.59994000E+01
             ecut      4.00000000E+01 Hartree
           etotal     -5.3767296353E+02
            fcart     -7.7589103593E-02  5.9392469122E-01  3.4694755384E-19
                       7.7589103593E-02  5.9392469122E-01  3.4694723144E-19
                      -7.7589103593E-02 -5.9392469122E-01  3.4694766131E-19
                       7.7589103593E-02 -5.9392469122E-01  3.4694733891E-19
                      -1.3877787808E-18  2.7755575616E-18  3.4694744637E-19
                      -1.3877787808E-18  2.7755575616E-18  3.4694744637E-19
                      -1.3877787808E-18  2.7755575616E-18  3.4694744637E-19
                      -1.3877787808E-18  2.7755575616E-18  3.4694744637E-19
                       1.8699006681E-01  2.1292630537E-01  3.4700246995E-19
                      -1.6896926807E-01 -3.7213431800E-02  3.9024572551E-02
                      -1.6896926807E-01 -3.7213431800E-02 -3.9024572551E-02
                       1.6896926807E-01 -3.7213431800E-02 -3.9024572551E-02
                       1.6896926807E-01 -3.7213431800E-02  3.9024572551E-02
                      -1.8699006681E-01  2.1292630537E-01  3.4691993459E-19
                       1.8699006681E-01 -2.1292630537E-01  3.4697495816E-19
                      -1.6896926807E-01  3.7213431800E-02 -3.9024572551E-02
                      -1.6896926807E-01  3.7213431800E-02  3.9024572551E-02
                       1.6896926807E-01  3.7213431800E-02  3.9024572551E-02
                       1.6896926807E-01  3.7213431800E-02 -3.9024572551E-02
                      -1.8699006681E-01 -2.1292630537E-01  3.4689242280E-19
-          fftalg         312
              kpt      2.50000000E-01  2.50000000E-01  2.50000000E-01
         kptrlatt        2    0    0      0    2    0      0    0    2
          kptrlen      1.08080000E+01
P           mkmem           1
            natom          20
            nband          80
            ngfft          32      32      45
             nkpt           1
             nsym           8
           ntypat           3
              occ      2.000000  2.000000  2.000000  2.000000  2.000000  2.000000
                       2.000000  2.000000  2.000000  2.000000  2.000000  2.000000
                       2.000000  2.000000  2.000000  2.000000  2.000000  2.000000
                       2.000000  2.000000  2.000000  2.000000  2.000000  2.000000
                       2.000000  2.000000  2.000000  2.000000  2.000000  2.000000
                       2.000000  2.000000  2.000000  2.000000  2.000000  2.000000
                       2.000000  2.000000  2.000000  2.000000  2.000000  2.000000
                       2.000000  2.000000  2.000000  2.000000  2.000000  2.000000
                       2.000000  2.000000  2.000000  2.000000  2.000000  2.000000
                       2.000000  2.000000  2.000000  2.000000  2.000000  2.000000
                       2.000000  2.000000  2.000000  2.000000  2.000000  2.000000
                       2.000000  2.000000  2.000000  2.000000  2.000000  2.000000
                       2.000000  2.000000  2.000000  2.000000  2.000000  2.000000
                       2.000000  2.000000
           shiftk      5.00000000E-01  5.00000000E-01  5.00000000E-01
          spgroup          62
           strten     -3.3779273286E-01 -3.3044780159E-01 -3.4503319358E-01
                       0.0000000000E+00  0.0000000000E+00  0.0000000000E+00
           symrel      1  0  0   0  1  0   0  0  1      -1  0  0   0 -1  0   0  0 -1
                      -1  0  0   0  1  0   0  0 -1       1  0  0   0 -1  0   0  0  1
                      -1  0  0   0 -1  0   0  0  1       1  0  0   0  1  0   0  0 -1
                       1  0  0   0 -1  0   0  0 -1      -1  0  0   0  1  0   0  0  1
            tnons      0.0000000  0.0000000  0.0000000     0.0000000  0.0000000  0.0000000
                       0.5000000  0.5000000  0.5000000     0.5000000  0.5000000  0.5000000
                       0.0000000  0.0000000  0.5000000     0.0000000  0.0000000  0.5000000
                       0.5000000  0.5000000  0.0000000     0.5000000  0.5000000  0.0000000
           toldfe      1.00000000E-10 Hartree
            typat      1  1  1  1  2  2  2  2  3  3  3  3  3  3  3  3  3  3  3  3
           xangst      2.4307225899E-02  2.7866564940E+00  3.0548077309E+00
                       1.4055295917E+00  1.3279795185E+00  3.0548077309E+00
                       1.4541440435E+00  1.5893744325E+00  1.0182692436E+00
                       2.8353664093E+00  1.3069745700E-01  1.0182692436E+00
                       0.0000000000E+00  1.4586769755E+00  0.0000000000E+00
                       0.0000000000E+00  1.4586769755E+00  2.0365384873E+00
                       1.4298368176E+00  0.0000000000E+00  0.0000000000E+00
                       1.4298368176E+00  0.0000000000E+00  2.0365384873E+00
                       2.2334051091E-01  1.3985794841E+00  1.0182692436E+00
                       5.9338227931E-01  6.0710135719E-01  2.2023127201E+00
                       5.9338227931E-01  6.0710135719E-01  3.9073027417E+00
                       8.3645453830E-01  2.0657783327E+00  3.9073027417E+00
                       8.3645453830E-01  2.0657783327E+00  2.2023127201E+00
                       1.2064963067E+00  2.8572564596E+00  1.0182692436E+00
                       1.6531773285E+00  6.0097491390E-02  3.0548077309E+00
                       2.0232190969E+00  8.5157561828E-01  1.8707642544E+00
                       2.0232190969E+00  8.5157561828E-01  1.6577423286E-01
                       2.2662913559E+00  2.3102525938E+00  1.6577423286E-01
                       2.2662913559E+00  2.3102525938E+00  1.8707642544E+00
                       2.6363331243E+00  1.5187744669E+00  3.0548077309E+00
            xcart      4.5934000000E-02  5.2660176000E+00  5.7727500000E+00
                       2.6560660000E+00  2.5095176000E+00  5.7727500000E+00
                       2.7479340000E+00  3.0034824000E+00  1.9242500000E+00
                       5.3580660000E+00  2.4698240000E-01  1.9242500000E+00
                       0.0000000000E+00  2.7565000000E+00  0.0000000000E+00
                       0.0000000000E+00  2.7565000000E+00  3.8485000000E+00
                       2.7020000000E+00  0.0000000000E+00  0.0000000000E+00
                       2.7020000000E+00  0.0000000000E+00  3.8485000000E+00
                       4.2205240000E-01  2.6429322000E+00  1.9242500000E+00
                       1.1213300000E+00  1.1472553000E+00  4.1617679000E+00
                       1.1213300000E+00  1.1472553000E+00  7.3837321000E+00
                       1.5806700000E+00  3.9037553000E+00  7.3837321000E+00
                       1.5806700000E+00  3.9037553000E+00  4.1617679000E+00
                       2.2799476000E+00  5.3994322000E+00  1.9242500000E+00
                       3.1240524000E+00  1.1356780000E-01  5.7727500000E+00
                       3.8233300000E+00  1.6092447000E+00  3.5352321000E+00
                       3.8233300000E+00  1.6092447000E+00  3.1326790000E-01
                       4.2826700000E+00  4.3657447000E+00  3.1326790000E-01
                       4.2826700000E+00  4.3657447000E+00  3.5352321000E+00
                       4.9819476000E+00  2.8700678000E+00  5.7727500000E+00
             xred      8.5000000000E-03  9.5520000000E-01  7.5000000000E-01
                       4.9150000000E-01  4.5520000000E-01  7.5000000000E-01
                       5.0850000000E-01  5.4480000000E-01  2.5000000000E-01
                       9.9150000000E-01  4.4800000000E-02  2.5000000000E-01
                       0.0000000000E+00  5.0000000000E-01  0.0000000000E+00
                       0.0000000000E+00  5.0000000000E-01  5.0000000000E-01
                       5.0000000000E-01  0.0000000000E+00  0.0000000000E+00
                       5.0000000000E-01  0.0000000000E+00  5.0000000000E-01
                       7.8100000000E-02  4.7940000000E-01  2.5000000000E-01
                       2.0750000000E-01  2.0810000000E-01  5.4070000000E-01
                       2.0750000000E-01  2.0810000000E-01  9.5930000000E-01
                       2.9250000000E-01  7.0810000000E-01  9.5930000000E-01
                       2.9250000000E-01  7.0810000000E-01  5.4070000000E-01
                       4.2190000000E-01  9.7940000000E-01  2.5000000000E-01
                       5.7810000000E-01  2.0600000000E-02  7.5000000000E-01
                       7.0750000000E-01  2.9190000000E-01  4.5930000000E-01
                       7.0750000000E-01  2.9190000000E-01  4.0700000000E-02
                       7.9250000000E-01  7.9190000000E-01  4.0700000000E-02
                       7.9250000000E-01  7.9190000000E-01  4.5930000000E-01
                       9.2190000000E-01  5.2060000000E-01  7.5000000000E-01
            znucl       20.00000   22.00000    8.00000
 
================================================================================
  

================================================================================

 Suggested references for the acknowledgment of ABINIT usage.

 The users of ABINIT have little formal obligations with respect to the ABINIT group
 (those specified in the GNU General Public License, http://www.gnu.org/copyleft/gpl.txt).
 However, it is common practice in the scientific literature,
 to acknowledge the efforts of people that have made the research possible.
 In this spirit, please find below suggested citations of work written by ABINIT developers,
 corresponding to implementations inside of ABINIT that you have used in the present run.
 Note also that it will be of great value to readers of publications presenting these results,
 to read papers enabling them to understand the theoretical formalism and details
 of the ABINIT implementation.
 For information on why they are suggested, see also https://docs.abinit.org/theory/acknowledgments.
-
- [1] Recent developments in the ABINIT software package.
- Computer Phys. Comm. 205, 106 (2016).
- X.Gonze, F.Jollet, F.Abreu Araujo, D.Adams, B.Amadon, T.Applencourt,
- C.Audouze, J.-M.Beuken, J.Bieder, A.Bokhanchuk, E.Bousquet, F.Bruneval
- D.Caliste, M.Cote, F.Dahm, F.Da Pieve, M.Delaveau, M.Di Gennaro,
- B.Dorado, C.Espejo, G.Geneste, L.Genovese, A.Gerossier, M.Giantomassi,
- Y.Gillet, D.R.Hamann, L.He, G.Jomard, J.Laflamme Janssen, S.Le Roux,
- A.Levitt, A.Lherbier, F.Liu, I.Lukacevic, A.Martin, C.Martins,
- M.J.T.Oliveira, S.Ponce, Y.Pouillon, T.Rangel, G.-M.Rignanese,
- A.H.Romero, B.Rousseau, O.Rubel, A.A.Shukri, M.Stankovski, M.Torrent,
- M.J.Van Setten, B.Van Troeye, M.J.Verstraete, D.Waroquier, J.Wiktor,
- B.Xu, A.Zhou, J.W.Zwanziger.
- Comment: the fourth generic paper describing the ABINIT project.
- Note that a version of this paper, that is not formatted for Computer Phys. Comm. 
- is available at https://www.abinit.org/about/ABINIT16.pdf .
- The licence allows the authors to put it on the Web.
- DOI and bibtex: see https://docs.abinit.org/theory/bibliography/#gonze2016
-
- [2] Optimized norm-conserving Vanderbilt pseudopotentials.
- D.R. Hamann, Phys. Rev. B 88, 085117 (2013).
- Comment: Some pseudopotential generated using the ONCVPSP code were used.
- DOI and bibtex: see https://docs.abinit.org/theory/bibliography/#hamann2013
-
- [3] ABINIT: First-principles approach of materials and nanosystem properties.
- Computer Phys. Comm. 180, 2582-2615 (2009).
- X. Gonze, B. Amadon, P.-M. Anglade, J.-M. Beuken, F. Bottin, P. Boulanger, F. Bruneval,
- D. Caliste, R. Caracas, M. Cote, T. Deutsch, L. Genovese, Ph. Ghosez, M. Giantomassi
- S. Goedecker, D.R. Hamann, P. Hermet, F. Jollet, G. Jomard, S. Leroux, M. Mancini, S. Mazevet,
- M.J.T. Oliveira, G. Onida, Y. Pouillon, T. Rangel, G.-M. Rignanese, D. Sangalli, R. Shaltaf,
- M. Torrent, M.J. Verstraete, G. Zerah, J.W. Zwanziger
- Comment: the third generic paper describing the ABINIT project.
- Note that a version of this paper, that is not formatted for Computer Phys. Comm. 
- is available at https://www.abinit.org/about/ABINIT_CPC_v10.pdf .
- The licence allows the authors to put it on the Web.
- DOI and bibtex: see https://docs.abinit.org/theory/bibliography/#gonze2009
-
- [4] A brief introduction to the ABINIT software package.
- Z. Kristallogr. 220, 558-562 (2005).
- X. Gonze, G.-M. Rignanese, M. Verstraete, J.-M. Beuken, Y. Pouillon, R. Caracas, F. Jollet,
- M. Torrent, G. Zerah, M. Mikami, Ph. Ghosez, M. Veithen, J.-Y. Raty, V. Olevano, F. Bruneval,
- L. Reining, R. Godby, G. Onida, D.R. Hamann, and D.C. Allan.
- Comment: the second generic paper describing the ABINIT project. Note that this paper
- should be cited especially if you are using the GW part of ABINIT, as several authors
- of this part are not in the list of authors of the first or third paper.
- The .pdf of the latter paper is available at https://www.abinit.org/about/zfk_0505-06_558-562.pdf.
- Note that it should not redistributed (Copyright by Oldenburg Wissenshaftverlag,
- the licence allows the authors to put it on the Web).
- DOI and bibtex: see https://docs.abinit.org/theory/bibliography/#gonze2005
-
- And optionally:
-
- [5] First-principles computation of material properties: the ABINIT software project. 
- X. Gonze, J.-M. Beuken, R. Caracas, F. Detraux, M. Fuchs, G.-M. Rignanese, L. Sindic,
- M. Verstraete, G. Zerah, F. Jollet, M. Torrent, A. Roy, M. Mikami, Ph. Ghosez, J.-Y. Raty, D.C. Allan.
- Computational Materials Science 25, 478-492 (2002). http://dx.doi.org/10.1016/S0927-0256(02)00325-7
- Comment: the original paper describing the ABINIT project.
- DOI and bibtex : see https://docs.abinit.org/theory/bibliography/#gonze2002
 Proc.   0 individual time (sec): cpu=         80.9  wall=         81.5
 
 Calculation completed.
.Delivered   1 WARNINGs and   0 COMMENTs to log file.

--- !FinalSummary
program: abinit
version: 8.11.13
start_datetime: Thu Dec 12 17:35:56 2019
end_datetime: Thu Dec 12 17:37:18 2019
overall_cpu_time:         242.3
overall_wall_time:         244.5
exit_requested_by_user: no 
timelimit: 0
pseudos: 
    Ca  : 465a3a044f2c7a72aff2b3fb3f797e8d
    Ti  : ea4ed3d71d7ed9998c7c8ddd5e23a4a6
    O   : abbcf0645b4a6d69360cd16bcad3e730
usepaw: 0
mpi_procs: 3
omp_threads: 1
num_warnings: 1
num_comments: 0
...
