
.Version 8.11.13 of ABINIT 
.(MPI version, prepared for a x86_64_linux_intel14.0 computer) 

.Copyright (C) 1998-2019 ABINIT group . 
 ABINIT comes with ABSOLUTELY NO WARRANTY.
 It is free software, and you are welcome to redistribute it
 under certain conditions (GNU General Public License,
 see ~abinit/COPYING or http://www.gnu.org/copyleft/gpl.txt).

 ABINIT is a project of the Universite Catholique de Louvain,
 Corning Inc. and other collaborators, see ~abinit/doc/developers/contributors.txt .
 Please read https://docs.abinit.org/theory/acknowledgments for suggested
 acknowledgments of the ABINIT effort.
 For more information, see https://www.abinit.org .

.Starting date : Thu 12 Dec 2019.
- ( at 17h35 )
  
- input  file    -> sp.in
- output file    -> sp.out
- root for input  files -> spi
- root for output files -> spo
 
 
 Symmetries : space group Pn m a (# 62); Bravais oP (primitive ortho.)
================================================================================
 Values of the parameters that define the memory need of the present run
     intxc =       0    ionmov =       0      iscf =       7    lmnmax =       6
     lnmax =       6     mgfft =      45  mpssoang =       3    mqgrid =    3001
     natom =      20  nloc_mem =       1    nspden =       1   nspinor =       1
    nsppol =       1      nsym =       8    n1xccc =    2501    ntypat =       3
    occopt =       1   xclevel =       1
-    mband =          80        mffmem =           1         mkmem =           1
       mpw =        2763          nfft =       46080          nkpt =           1
================================================================================
P This job should need less than                      19.695 Mbytes of memory.
  Rough estimation (10% accuracy) of disk space for files :
_ WF disk file :      3.375 Mbytes ; DEN or POT disk file :      0.354 Mbytes.
================================================================================
 
--------------------------------------------------------------------------------
------------- Echo of variables that govern the present computation ------------
--------------------------------------------------------------------------------
-
- outvars: echo of selected default values                                      
-   iomode0 =  0 , fftalg0 =312 , wfoptalg0 =  0
-
- outvars: echo of global parameters not present in the input file              
-  max_nthreads =    0
-
 -outvars: echo values of preprocessed input variables --------
            acell      5.4040000000E+00  5.5130000000E+00  7.6970000000E+00 Bohr
              amu      4.00780000E+01  4.78800000E+01  1.59994000E+01
             ecut      4.00000000E+01 Hartree
-          fftalg         312
              kpt      2.50000000E-01  2.50000000E-01  2.50000000E-01
         kptrlatt        2    0    0      0    2    0      0    0    2
          kptrlen      1.08080000E+01
P           mkmem           1
            natom          20
            nband          80
            ngfft          32      32      45
             nkpt           1
             nsym           8
           ntypat           3
              occ      2.000000  2.000000  2.000000  2.000000  2.000000  2.000000
                       2.000000  2.000000  2.000000  2.000000  2.000000  2.000000
                       2.000000  2.000000  2.000000  2.000000  2.000000  2.000000
                       2.000000  2.000000  2.000000  2.000000  2.000000  2.000000
                       2.000000  2.000000  2.000000  2.000000  2.000000  2.000000
                       2.000000  2.000000  2.000000  2.000000  2.000000  2.000000
                       2.000000  2.000000  2.000000  2.000000  2.000000  2.000000
                       2.000000  2.000000  2.000000  2.000000  2.000000  2.000000
                       2.000000  2.000000  2.000000  2.000000  2.000000  2.000000
                       2.000000  2.000000  2.000000  2.000000  2.000000  2.000000
                       2.000000  2.000000  2.000000  2.000000  2.000000  2.000000
                       2.000000  2.000000  2.000000  2.000000  2.000000  2.000000
                       2.000000  2.000000  2.000000  2.000000  2.000000  2.000000
                       2.000000  2.000000
           shiftk      5.00000000E-01  5.00000000E-01  5.00000000E-01
          spgroup          62
           symrel      1  0  0   0  1  0   0  0  1      -1  0  0   0 -1  0   0  0 -1
                      -1  0  0   0  1  0   0  0 -1       1  0  0   0 -1  0   0  0  1
                      -1  0  0   0 -1  0   0  0  1       1  0  0   0  1  0   0  0 -1
                       1  0  0   0 -1  0   0  0 -1      -1  0  0   0  1  0   0  0  1
            tnons      0.0000000  0.0000000  0.0000000     0.0000000  0.0000000  0.0000000
                       0.5000000  0.5000000  0.5000000     0.5000000  0.5000000  0.5000000
                       0.0000000  0.0000000  0.5000000     0.0000000  0.0000000  0.5000000
                       0.5000000  0.5000000  0.0000000     0.5000000  0.5000000  0.0000000
           toldfe      1.00000000E-10 Hartree
            typat      1  1  1  1  2  2  2  2  3  3  3  3  3  3  3  3  3  3  3  3
           xangst      2.4307225899E-02  2.7866564940E+00  3.0548077309E+00
                       1.4055295917E+00  1.3279795185E+00  3.0548077309E+00
                       1.4541440435E+00  1.5893744325E+00  1.0182692436E+00
                       2.8353664093E+00  1.3069745700E-01  1.0182692436E+00
                       0.0000000000E+00  1.4586769755E+00  0.0000000000E+00
                       0.0000000000E+00  1.4586769755E+00  2.0365384873E+00
                       1.4298368176E+00  0.0000000000E+00  0.0000000000E+00
                       1.4298368176E+00  0.0000000000E+00  2.0365384873E+00
                       2.2334051091E-01  1.3985794841E+00  1.0182692436E+00
                       5.9338227931E-01  6.0710135719E-01  2.2023127201E+00
                       5.9338227931E-01  6.0710135719E-01  3.9073027417E+00
                       8.3645453830E-01  2.0657783327E+00  3.9073027417E+00
                       8.3645453830E-01  2.0657783327E+00  2.2023127201E+00
                       1.2064963067E+00  2.8572564596E+00  1.0182692436E+00
                       1.6531773285E+00  6.0097491390E-02  3.0548077309E+00
                       2.0232190969E+00  8.5157561828E-01  1.8707642544E+00
                       2.0232190969E+00  8.5157561828E-01  1.6577423286E-01
                       2.2662913559E+00  2.3102525938E+00  1.6577423286E-01
                       2.2662913559E+00  2.3102525938E+00  1.8707642544E+00
                       2.6363331243E+00  1.5187744669E+00  3.0548077309E+00
            xcart      4.5934000000E-02  5.2660176000E+00  5.7727500000E+00
                       2.6560660000E+00  2.5095176000E+00  5.7727500000E+00
                       2.7479340000E+00  3.0034824000E+00  1.9242500000E+00
                       5.3580660000E+00  2.4698240000E-01  1.9242500000E+00
                       0.0000000000E+00  2.7565000000E+00  0.0000000000E+00
                       0.0000000000E+00  2.7565000000E+00  3.8485000000E+00
                       2.7020000000E+00  0.0000000000E+00  0.0000000000E+00
                       2.7020000000E+00  0.0000000000E+00  3.8485000000E+00
                       4.2205240000E-01  2.6429322000E+00  1.9242500000E+00
                       1.1213300000E+00  1.1472553000E+00  4.1617679000E+00
                       1.1213300000E+00  1.1472553000E+00  7.3837321000E+00
                       1.5806700000E+00  3.9037553000E+00  7.3837321000E+00
                       1.5806700000E+00  3.9037553000E+00  4.1617679000E+00
                       2.2799476000E+00  5.3994322000E+00  1.9242500000E+00
                       3.1240524000E+00  1.1356780000E-01  5.7727500000E+00
                       3.8233300000E+00  1.6092447000E+00  3.5352321000E+00
                       3.8233300000E+00  1.6092447000E+00  3.1326790000E-01
                       4.2826700000E+00  4.3657447000E+00  3.1326790000E-01
                       4.2826700000E+00  4.3657447000E+00  3.5352321000E+00
                       4.9819476000E+00  2.8700678000E+00  5.7727500000E+00
             xred      8.5000000000E-03  9.5520000000E-01  7.5000000000E-01
                       4.9150000000E-01  4.5520000000E-01  7.5000000000E-01
                       5.0850000000E-01  5.4480000000E-01  2.5000000000E-01
                       9.9150000000E-01  4.4800000000E-02  2.5000000000E-01
                       0.0000000000E+00  5.0000000000E-01  0.0000000000E+00
                       0.0000000000E+00  5.0000000000E-01  5.0000000000E-01
                       5.0000000000E-01  0.0000000000E+00  0.0000000000E+00
                       5.0000000000E-01  0.0000000000E+00  5.0000000000E-01
                       7.8100000000E-02  4.7940000000E-01  2.5000000000E-01
                       2.0750000000E-01  2.0810000000E-01  5.4070000000E-01
                       2.0750000000E-01  2.0810000000E-01  9.5930000000E-01
                       2.9250000000E-01  7.0810000000E-01  9.5930000000E-01
                       2.9250000000E-01  7.0810000000E-01  5.4070000000E-01
                       4.2190000000E-01  9.7940000000E-01  2.5000000000E-01
                       5.7810000000E-01  2.0600000000E-02  7.5000000000E-01
                       7.0750000000E-01  2.9190000000E-01  4.5930000000E-01
                       7.0750000000E-01  2.9190000000E-01  4.0700000000E-02
                       7.9250000000E-01  7.9190000000E-01  4.0700000000E-02
                       7.9250000000E-01  7.9190000000E-01  4.5930000000E-01
                       9.2190000000E-01  5.2060000000E-01  7.5000000000E-01
            znucl       20.00000   22.00000    8.00000
 
================================================================================
 
 chkinp: Checking input parameters for consistency.
 
================================================================================
== DATASET  1 ==================================================================
-   nproc =    3   -> not optimal: autoparal keyword recommended in input file
 
 Exchange-correlation functional for the present dataset will be:
  LDA: new Teter (4/93) with spin-polarized option - ixc=1
 Citation for XC functional:
  S. Goedecker, M. Teter, J. Huetter, PRB 54, 1703 (1996)
 
 Real(R)+Recip(G) space primitive vectors, cartesian coordinates (Bohr,Bohr^-1):
 R(1)=  5.4040000  0.0000000  0.0000000  G(1)=  0.1850481  0.0000000  0.0000000
 R(2)=  0.0000000  5.5130000  0.0000000  G(2)=  0.0000000  0.1813894  0.0000000
 R(3)=  0.0000000  0.0000000  7.6970000  G(3)=  0.0000000  0.0000000  0.1299207
 Unit cell volume ucvol=  2.2931096E+02 bohr^3
 Angles (23,13,12)=  9.00000000E+01  9.00000000E+01  9.00000000E+01 degrees
 
 getcut: wavevector=  0.0000  0.0000  0.0000  ngfft=  32  32  45
         ecut(hartree)=     40.000   => boxcut(ratio)=   2.00787
 
--- Pseudopotential description ------------------------------------------------
- pspini: atom type   1  psp file is /CECI/home/ucl/naps/jovbever/.PsP/CTO/Ca.psp8
- pspatm: opening atomic psp file    /CECI/home/ucl/naps/jovbever/.PsP/CTO/Ca.psp8
- Ca    ONCVPSP-3.2.3.1  r_core=   1.45885   1.45885   1.85192
- 20.00000  10.00000    170504                znucl, zion, pspdat
    8   11    2    4       400   0.00000      pspcod,pspxc,lmax,lloc,mmax,r2well
    3.99000000000000    6.00000000000000    0.00000000000000   rchrg,fchrg,qchrg
     nproj     2     2     2
     extension_switch     1
  pspatm : epsatm=   12.33414111
         --- l  ekb(1:nproj) -->
             0   10.063789    0.972391
             1    3.049878    0.471799
             2   -3.406671   -1.078890
 pspatm: atomic psp has been read  and splines computed
 
- pspini: atom type   2  psp file is /CECI/home/ucl/naps/jovbever/.PsP/CTO/Ti.psp8
- pspatm: opening atomic psp file    /CECI/home/ucl/naps/jovbever/.PsP/CTO/Ti.psp8
- Ti    ONCVPSP-3.2.3.1  r_core=   1.35825   1.31050   1.66360
- 22.00000  12.00000    170504                znucl, zion, pspdat
    8   11    2    4       600   0.00000      pspcod,pspxc,lmax,lloc,mmax,r2well
    5.99000000000000    2.50000000000000    0.00000000000000   rchrg,fchrg,qchrg
     nproj     2     2     2
     extension_switch     1
  pspatm : epsatm=   14.68144390
         --- l  ekb(1:nproj) -->
             0   11.362348    1.263639
             1    1.975402   -0.084666
             2   -5.186090   -1.477451
 pspatm: atomic psp has been read  and splines computed
 
- pspini: atom type   3  psp file is /CECI/home/ucl/naps/jovbever/.PsP/CTO/O.psp8
- pspatm: opening atomic psp file    /CECI/home/ucl/naps/jovbever/.PsP/CTO/O.psp8
- O     ONCVPSP-3.2.3.1  r_core=   1.35509   1.45563   1.26150
-  8.00000   6.00000    170504                znucl, zion, pspdat
    8   11    2    4       600   0.00000      pspcod,pspxc,lmax,lloc,mmax,r2well
    5.99000000000000    4.00000000000000    0.00000000000000   rchrg,fchrg,qchrg
     nproj     2     2     1
     extension_switch     1
  pspatm : epsatm=    6.19546011
         --- l  ekb(1:nproj) -->
             0    6.056735    0.824024
             1   -4.717130   -1.149271
             2   -1.331955
 pspatm: atomic psp has been read  and splines computed
 
   2.91852578E+04                                ecore*ucvol(ha*bohr**3)
--------------------------------------------------------------------------------
 
_setup2: Arith. and geom. avg. npw (full set) are    2763.000    2763.000
 
================================================================================
 
     iter   Etot(hartree)      deltaE(h)  residm     vres2
 ETOT  1  -535.71582167895    -5.357E+02 2.063E-01 1.122E+03
 ETOT  2  -537.19012976413    -1.474E+00 1.629E-02 7.021E+02
 ETOT  3  -537.51109752124    -3.210E-01 1.316E-02 5.232E+01
 ETOT  4  -537.58115312735    -7.006E-02 6.025E-03 1.569E+00
 ETOT  5  -537.61088672253    -2.973E-02 4.458E-03 7.866E-01
 ETOT  6  -537.63025910813    -1.937E-02 2.854E-03 5.395E-01
 ETOT  7  -537.64371684456    -1.346E-02 2.316E-03 1.230E-01
 ETOT  8  -537.65284299882    -9.126E-03 1.471E-03 6.782E-02
 ETOT  9  -537.65878807776    -5.945E-03 1.207E-03 6.589E-01
 ETOT 10  -537.66310994037    -4.322E-03 6.869E-04 4.307E-01
 ETOT 11  -537.66589221236    -2.782E-03 6.792E-04 5.267E-01
 ETOT 12  -537.66783682066    -1.945E-03 3.946E-04 6.171E-01
 ETOT 13  -537.66907332757    -1.237E-03 4.023E-04 9.131E-01
 ETOT 14  -537.67018997354    -1.117E-03 2.230E-04 5.712E-01
 ETOT 15  -537.67103915105    -8.492E-04 2.020E-04 8.159E-02
 ETOT 16  -537.67108610763    -4.696E-05 1.639E-04 1.221E+00
 ETOT 17  -537.67187431601    -7.882E-04 9.574E-05 1.698E-01
 ETOT 18  -537.67212438797    -2.501E-04 8.520E-05 2.139E-01
 ETOT 19  -537.67206279479     6.159E-05 4.308E-05 7.905E-01
 ETOT 20  -537.67232714293    -2.643E-04 8.917E-05 5.155E-01
 ETOT 21  -537.67267199455    -3.449E-04 3.120E-05 8.311E-03
 ETOT 22  -537.67274619785    -7.420E-05 4.008E-05 3.647E-02
 ETOT 23  -537.67281974520    -7.355E-05 1.442E-05 1.858E-02
 ETOT 24  -537.67286421602    -4.447E-05 1.985E-05 1.414E-02
 ETOT 25  -537.67290199660    -3.778E-05 6.518E-06 7.210E-04
 ETOT 26  -537.67292398113    -2.198E-05 9.659E-06 3.365E-05
 ETOT 27  -537.67293935279    -1.537E-05 3.174E-06 3.734E-05
 ETOT 28  -537.67295014494    -1.079E-05 4.903E-06 2.043E-04
 ETOT 29  -537.67295803615    -7.891E-06 1.596E-06 2.053E-05
 ETOT 30  -537.67296353008    -5.494E-06 2.495E-06 7.913E-05
 
 Cartesian components of stress tensor (hartree/bohr^3)
  sigma(1 1)= -3.37792733E-01  sigma(3 2)=  0.00000000E+00
  sigma(2 2)= -3.30447802E-01  sigma(3 1)=  0.00000000E+00
  sigma(3 3)= -3.45033194E-01  sigma(2 1)=  0.00000000E+00
 
 
 scprqt:  WARNING -
  nstep=   30 was not enough SCF cycles to converge;
  maximum energy difference=  5.494E-06 exceeds toldfe=  1.000E-10
 
 Integrated electronic density in atomic spheres:
 ------------------------------------------------
 Atom  Sphere_radius  Integrated_density
    1        2.00000         18.32608034
    2        2.00000         18.32608034
    3        2.00000         18.32608034
    4        2.00000         18.32608034
    5        2.00000         26.41750113
    6        2.00000         26.41589542
    7        2.00000         26.41750113
    8        2.00000         26.41589542
    9        2.00000         22.42310119
   10        2.00000         22.38384388
   11        2.00000         22.41674159
   12        2.00000         22.41674159
   13        2.00000         22.38384388
   14        2.00000         22.42310119
   15        2.00000         22.42310119
   16        2.00000         22.38384388
   17        2.00000         22.41674159
   18        2.00000         22.41674159
   19        2.00000         22.38384388
   20        2.00000         22.42310119
================================================================================
 
 ----iterations are completed or convergence reached----
 
 Mean square residual over all n,k,spin=   31.244E-09; max=  24.951E-07
 reduced coordinates (array xred) for   20 atoms
       0.008500000000      0.955200000000      0.750000000000
       0.491500000000      0.455200000000      0.750000000000
       0.508500000000      0.544800000000      0.250000000000
       0.991500000000      0.044800000000      0.250000000000
       0.000000000000      0.500000000000      0.000000000000
       0.000000000000      0.500000000000      0.500000000000
       0.500000000000      0.000000000000      0.000000000000
       0.500000000000      0.000000000000      0.500000000000
       0.078100000000      0.479400000000      0.250000000000
       0.207500000000      0.208100000000      0.540700000000
       0.207500000000      0.208100000000      0.959300000000
       0.292500000000      0.708100000000      0.959300000000
       0.292500000000      0.708100000000      0.540700000000
       0.421900000000      0.979400000000      0.250000000000
       0.578100000000      0.020600000000      0.750000000000
       0.707500000000      0.291900000000      0.459300000000
       0.707500000000      0.291900000000      0.040700000000
       0.792500000000      0.791900000000      0.040700000000
       0.792500000000      0.791900000000      0.459300000000
       0.921900000000      0.520600000000      0.750000000000
 rms dE/dt=  1.0076E+00; max dE/dt=  3.2743E+00; dE/dt below (all hartree)
    1       0.419291515814     -3.274306822722     -0.000000000000
    2      -0.419291515814     -3.274306822722      0.000000000000
    3       0.419291515814      3.274306822722     -0.000000000000
    4      -0.419291515814      3.274306822722      0.000000000000
    5       0.000000000000      0.000000000000      0.000000000000
    6       0.000000000000      0.000000000000      0.000000000000
    7       0.000000000000      0.000000000000      0.000000000000
    8       0.000000000000      0.000000000000      0.000000000000
    9      -1.010494321037     -1.173862721505     -0.000000000000
   10       0.913109924624      0.205157649512     -0.300372134924
   11       0.913109924624      0.205157649512      0.300372134924
   12      -0.913109924624      0.205157649512      0.300372134924
   13      -0.913109924624      0.205157649512     -0.300372134924
   14       1.010494321037     -1.173862721505      0.000000000000
   15      -1.010494321037      1.173862721505     -0.000000000000
   16       0.913109924624     -0.205157649512      0.300372134924
   17       0.913109924624     -0.205157649512     -0.300372134924
   18      -0.913109924624     -0.205157649512     -0.300372134924
   19      -0.913109924624     -0.205157649512      0.300372134924
   20       1.010494321037      1.173862721505      0.000000000000
 
 cartesian coordinates (angstrom) at end:
    1      0.02430722589937     2.78665649395381     3.05480773088792
    2      1.40552959171081     1.32797951847548     3.05480773088792
    3      1.45414404350955     1.58937443248119     1.01826924362931
    4      2.83536640932099     0.13069745700286     1.01826924362931
    5      0.00000000000000     1.45867697547834     0.00000000000000
    6      0.00000000000000     1.45867697547834     2.03653848725861
    7      1.42983681761018     0.00000000000000     0.00000000000000
    8      1.42983681761018     0.00000000000000     2.03653848725861
    9      0.22334051091071     1.39857948408863     1.01826924362931
   10      0.59338227930822     0.60710135719408     2.20231272012147
   11      0.59338227930822     0.60710135719408     3.90730274165438
   12      0.83645453830196     2.06577833267242     3.90730274165438
   13      0.83645453830196     2.06577833267242     2.20231272012147
   14      1.20649630669947     2.85725645956696     1.01826924362931
   15      1.65317732852089     0.06009749138971     3.05480773088792
   16      2.02321909691840     0.85157561828425     1.87076425439576
   17      2.02321909691840     0.85157561828425     0.16577423286285
   18      2.26629135591213     2.31025259376259     0.16577423286285
   19      2.26629135591213     2.31025259376259     1.87076425439576
   20      2.63633312430965     1.51877446686804     3.05480773088792
 
 cartesian forces (hartree/bohr) at end:
    1     -0.07758910359261     0.59392469122469     0.00000000000000
    2      0.07758910359261     0.59392469122469     0.00000000000000
    3     -0.07758910359261    -0.59392469122469     0.00000000000000
    4      0.07758910359261    -0.59392469122469     0.00000000000000
    5     -0.00000000000000     0.00000000000000     0.00000000000000
    6     -0.00000000000000     0.00000000000000     0.00000000000000
    7     -0.00000000000000     0.00000000000000     0.00000000000000
    8     -0.00000000000000     0.00000000000000     0.00000000000000
    9      0.18699006680920     0.21292630536995     0.00000000000000
   10     -0.16896926806521    -0.03721343179975     0.03902457255081
   11     -0.16896926806521    -0.03721343179975    -0.03902457255081
   12      0.16896926806521    -0.03721343179975    -0.03902457255081
   13      0.16896926806521    -0.03721343179975     0.03902457255081
   14     -0.18699006680920     0.21292630536995     0.00000000000000
   15      0.18699006680920    -0.21292630536995     0.00000000000000
   16     -0.16896926806521     0.03721343179975    -0.03902457255081
   17     -0.16896926806521     0.03721343179975     0.03902457255081
   18      0.16896926806521     0.03721343179975     0.03902457255081
   19      0.16896926806521     0.03721343179975    -0.03902457255081
   20     -0.18699006680920    -0.21292630536995     0.00000000000000
 frms,max,avg= 1.8293646E-01 5.9392469E-01   0.000E+00  0.000E+00  0.000E+00 h/b
 
 cartesian forces (eV/Angstrom) at end:
    1     -3.98979178796726    30.54083300357866     0.00000000000000
    2      3.98979178796726    30.54083300357866     0.00000000000000
    3     -3.98979178796726   -30.54083300357866     0.00000000000000
    4      3.98979178796726   -30.54083300357866     0.00000000000000
    5     -0.00000000000000     0.00000000000000     0.00000000000000
    6     -0.00000000000000     0.00000000000000     0.00000000000000
    7     -0.00000000000000     0.00000000000000     0.00000000000000
    8     -0.00000000000000     0.00000000000000     0.00000000000000
    9      9.61541503178087    10.94910993002043     0.00000000000000
   10     -8.68874837999324    -1.91359144160640     2.00672403575720
   11     -8.68874837999324    -1.91359144160640    -2.00672403575720
   12      8.68874837999324    -1.91359144160640    -2.00672403575720
   13      8.68874837999324    -1.91359144160640     2.00672403575720
   14     -9.61541503178087    10.94910993002043     0.00000000000000
   15      9.61541503178087   -10.94910993002043     0.00000000000000
   16     -8.68874837999324     1.91359144160640    -2.00672403575720
   17     -8.68874837999324     1.91359144160640     2.00672403575720
   18      8.68874837999324     1.91359144160640     2.00672403575720
   19      8.68874837999324     1.91359144160640    -2.00672403575720
   20     -9.61541503178087   -10.94910993002043     0.00000000000000
 frms,max,avg= 9.4069704E+00 3.0540833E+01   0.000E+00  0.000E+00  0.000E+00 e/A
 length scales=  5.404000000000  5.513000000000  7.697000000000 bohr
              =  2.859673635220  2.917353950957  4.073076974517 angstroms
 prteigrs : about to open file spo_EIG
 Fermi (or HOMO) energy (hartree) =   2.38498   Average Vxc (hartree)=  -0.94574
 Eigenvalues (hartree) for nkpt=   1  k points:
 kpt#   1, nband= 80, wtk=  1.00000, kpt=  0.2500  0.2500  0.2500 (reduced coord)
  -0.81531   -0.75216   -0.73037   -0.68497   -0.28991   -0.27407   -0.18195   -0.17902
  -0.12610   -0.09974   -0.05934   -0.02319   -0.00004    0.05287    0.06077    0.10598
   0.20214    0.32315    0.33754    0.46068    0.48193    0.51687    0.58567    0.63598
   0.67169    0.68075    0.70843    0.75732    0.78189    0.80336    0.82236    0.84471
   0.84569    0.88700    0.92754    0.95858    0.98352    1.01399    1.04246    1.05646
   1.13355    1.16047    1.19638    1.22931    1.25252    1.30676    1.34547    1.38090
   1.41108    1.44926    1.47914    1.53554    1.59542    1.61312    1.67267    1.69672
   1.71922    1.78483    1.79269    1.80842    1.81733    1.88210    1.89856    1.91934
   1.93206    1.98898    2.00911    2.07702    2.10559    2.15012    2.17335    2.19991
   2.21131    2.23922    2.24938    2.25598    2.27436    2.30625    2.35069    2.38498
 
--------------------------------------------------------------------------------
 Components of total free energy (in Hartree) :
 
    Kinetic energy  =  4.62082392213431E+02
    Hartree energy  =  3.43802879654732E+01
    XC energy       = -1.45354259865005E+02
    Ewald energy    = -8.20595119615796E+02
    PspCore energy  =  1.27273713193440E+02
    Loc. psp. energy= -1.39977682462970E+02
    NL   psp  energy= -5.54822949586537E+01
    >>>>>>>>> Etotal= -5.37672963530081E+02
 
 Other information on the energy :
    Total energy(eV)= -1.46308254017608E+04 ; Band energy (Ha)=   1.7064445885E+02
--------------------------------------------------------------------------------
 
 
 
 Cartesian components of stress tensor (hartree/bohr^3)
  sigma(1 1)= -3.37792733E-01  sigma(3 2)=  0.00000000E+00
  sigma(2 2)= -3.30447802E-01  sigma(3 1)=  0.00000000E+00
  sigma(3 3)= -3.45033194E-01  sigma(2 1)=  0.00000000E+00
 
-Cartesian components of stress tensor (GPa)         [Pressure=  9.9372E+03 GPa]
- sigma(1 1)= -9.93820364E+03  sigma(3 2)=  0.00000000E+00
- sigma(2 2)= -9.72210834E+03  sigma(3 1)=  0.00000000E+00
- sigma(3 3)= -1.01512253E+04  sigma(2 1)=  0.00000000E+00
 
== END DATASET(S) ==============================================================
================================================================================
  
 -outvars: echo values of variables after computation  --------
            acell      5.4040000000E+00  5.5130000000E+00  7.6970000000E+00 Bohr
              amu      4.00780000E+01  4.78800000E+01  1.59994000E+01
             ecut      4.00000000E+01 Hartree
           etotal     -5.3767296353E+02
            fcart     -7.7589103593E-02  5.9392469122E-01  3.4694755384E-19
                       7.7589103593E-02  5.9392469122E-01  3.4694723144E-19
                      -7.7589103593E-02 -5.9392469122E-01  3.4694766131E-19
                       7.7589103593E-02 -5.9392469122E-01  3.4694733891E-19
                      -1.3877787808E-18  2.7755575616E-18  3.4694744637E-19
                      -1.3877787808E-18  2.7755575616E-18  3.4694744637E-19
                      -1.3877787808E-18  2.7755575616E-18  3.4694744637E-19
                      -1.3877787808E-18  2.7755575616E-18  3.4694744637E-19
                       1.8699006681E-01  2.1292630537E-01  3.4700246995E-19
                      -1.6896926807E-01 -3.7213431800E-02  3.9024572551E-02
                      -1.6896926807E-01 -3.7213431800E-02 -3.9024572551E-02
                       1.6896926807E-01 -3.7213431800E-02 -3.9024572551E-02
                       1.6896926807E-01 -3.7213431800E-02  3.9024572551E-02
                      -1.8699006681E-01  2.1292630537E-01  3.4691993459E-19
                       1.8699006681E-01 -2.1292630537E-01  3.4697495816E-19
                      -1.6896926807E-01  3.7213431800E-02 -3.9024572551E-02
                      -1.6896926807E-01  3.7213431800E-02  3.9024572551E-02
                       1.6896926807E-01  3.7213431800E-02  3.9024572551E-02
                       1.6896926807E-01  3.7213431800E-02 -3.9024572551E-02
                      -1.8699006681E-01 -2.1292630537E-01  3.4689242280E-19
-          fftalg         312
              kpt      2.50000000E-01  2.50000000E-01  2.50000000E-01
         kptrlatt        2    0    0      0    2    0      0    0    2
          kptrlen      1.08080000E+01
P           mkmem           1
            natom          20
            nband          80
            ngfft          32      32      45
             nkpt           1
             nsym           8
           ntypat           3
              occ      2.000000  2.000000  2.000000  2.000000  2.000000  2.000000
                       2.000000  2.000000  2.000000  2.000000  2.000000  2.000000
                       2.000000  2.000000  2.000000  2.000000  2.000000  2.000000
                       2.000000  2.000000  2.000000  2.000000  2.000000  2.000000
                       2.000000  2.000000  2.000000  2.000000  2.000000  2.000000
                       2.000000  2.000000  2.000000  2.000000  2.000000  2.000000
                       2.000000  2.000000  2.000000  2.000000  2.000000  2.000000
                       2.000000  2.000000  2.000000  2.000000  2.000000  2.000000
                       2.000000  2.000000  2.000000  2.000000  2.000000  2.000000
                       2.000000  2.000000  2.000000  2.000000  2.000000  2.000000
                       2.000000  2.000000  2.000000  2.000000  2.000000  2.000000
                       2.000000  2.000000  2.000000  2.000000  2.000000  2.000000
                       2.000000  2.000000  2.000000  2.000000  2.000000  2.000000
                       2.000000  2.000000
           shiftk      5.00000000E-01  5.00000000E-01  5.00000000E-01
          spgroup          62
           strten     -3.3779273286E-01 -3.3044780159E-01 -3.4503319358E-01
                       0.0000000000E+00  0.0000000000E+00  0.0000000000E+00
           symrel      1  0  0   0  1  0   0  0  1      -1  0  0   0 -1  0   0  0 -1
                      -1  0  0   0  1  0   0  0 -1       1  0  0   0 -1  0   0  0  1
                      -1  0  0   0 -1  0   0  0  1       1  0  0   0  1  0   0  0 -1
                       1  0  0   0 -1  0   0  0 -1      -1  0  0   0  1  0   0  0  1
            tnons      0.0000000  0.0000000  0.0000000     0.0000000  0.0000000  0.0000000
                       0.5000000  0.5000000  0.5000000     0.5000000  0.5000000  0.5000000
                       0.0000000  0.0000000  0.5000000     0.0000000  0.0000000  0.5000000
                       0.5000000  0.5000000  0.0000000     0.5000000  0.5000000  0.0000000
           toldfe      1.00000000E-10 Hartree
            typat      1  1  1  1  2  2  2  2  3  3  3  3  3  3  3  3  3  3  3  3
           xangst      2.4307225899E-02  2.7866564940E+00  3.0548077309E+00
                       1.4055295917E+00  1.3279795185E+00  3.0548077309E+00
                       1.4541440435E+00  1.5893744325E+00  1.0182692436E+00
                       2.8353664093E+00  1.3069745700E-01  1.0182692436E+00
                       0.0000000000E+00  1.4586769755E+00  0.0000000000E+00
                       0.0000000000E+00  1.4586769755E+00  2.0365384873E+00
                       1.4298368176E+00  0.0000000000E+00  0.0000000000E+00
                       1.4298368176E+00  0.0000000000E+00  2.0365384873E+00
                       2.2334051091E-01  1.3985794841E+00  1.0182692436E+00
                       5.9338227931E-01  6.0710135719E-01  2.2023127201E+00
                       5.9338227931E-01  6.0710135719E-01  3.9073027417E+00
                       8.3645453830E-01  2.0657783327E+00  3.9073027417E+00
                       8.3645453830E-01  2.0657783327E+00  2.2023127201E+00
                       1.2064963067E+00  2.8572564596E+00  1.0182692436E+00
                       1.6531773285E+00  6.0097491390E-02  3.0548077309E+00
                       2.0232190969E+00  8.5157561828E-01  1.8707642544E+00
                       2.0232190969E+00  8.5157561828E-01  1.6577423286E-01
                       2.2662913559E+00  2.3102525938E+00  1.6577423286E-01
                       2.2662913559E+00  2.3102525938E+00  1.8707642544E+00
                       2.6363331243E+00  1.5187744669E+00  3.0548077309E+00
            xcart      4.5934000000E-02  5.2660176000E+00  5.7727500000E+00
                       2.6560660000E+00  2.5095176000E+00  5.7727500000E+00
                       2.7479340000E+00  3.0034824000E+00  1.9242500000E+00
                       5.3580660000E+00  2.4698240000E-01  1.9242500000E+00
                       0.0000000000E+00  2.7565000000E+00  0.0000000000E+00
                       0.0000000000E+00  2.7565000000E+00  3.8485000000E+00
                       2.7020000000E+00  0.0000000000E+00  0.0000000000E+00
                       2.7020000000E+00  0.0000000000E+00  3.8485000000E+00
                       4.2205240000E-01  2.6429322000E+00  1.9242500000E+00
                       1.1213300000E+00  1.1472553000E+00  4.1617679000E+00
                       1.1213300000E+00  1.1472553000E+00  7.3837321000E+00
                       1.5806700000E+00  3.9037553000E+00  7.3837321000E+00
                       1.5806700000E+00  3.9037553000E+00  4.1617679000E+00
                       2.2799476000E+00  5.3994322000E+00  1.9242500000E+00
                       3.1240524000E+00  1.1356780000E-01  5.7727500000E+00
                       3.8233300000E+00  1.6092447000E+00  3.5352321000E+00
                       3.8233300000E+00  1.6092447000E+00  3.1326790000E-01
                       4.2826700000E+00  4.3657447000E+00  3.1326790000E-01
                       4.2826700000E+00  4.3657447000E+00  3.5352321000E+00
                       4.9819476000E+00  2.8700678000E+00  5.7727500000E+00
             xred      8.5000000000E-03  9.5520000000E-01  7.5000000000E-01
                       4.9150000000E-01  4.5520000000E-01  7.5000000000E-01
                       5.0850000000E-01  5.4480000000E-01  2.5000000000E-01
                       9.9150000000E-01  4.4800000000E-02  2.5000000000E-01
                       0.0000000000E+00  5.0000000000E-01  0.0000000000E+00
                       0.0000000000E+00  5.0000000000E-01  5.0000000000E-01
                       5.0000000000E-01  0.0000000000E+00  0.0000000000E+00
                       5.0000000000E-01  0.0000000000E+00  5.0000000000E-01
                       7.8100000000E-02  4.7940000000E-01  2.5000000000E-01
                       2.0750000000E-01  2.0810000000E-01  5.4070000000E-01
                       2.0750000000E-01  2.0810000000E-01  9.5930000000E-01
                       2.9250000000E-01  7.0810000000E-01  9.5930000000E-01
                       2.9250000000E-01  7.0810000000E-01  5.4070000000E-01
                       4.2190000000E-01  9.7940000000E-01  2.5000000000E-01
                       5.7810000000E-01  2.0600000000E-02  7.5000000000E-01
                       7.0750000000E-01  2.9190000000E-01  4.5930000000E-01
                       7.0750000000E-01  2.9190000000E-01  4.0700000000E-02
                       7.9250000000E-01  7.9190000000E-01  4.0700000000E-02
                       7.9250000000E-01  7.9190000000E-01  4.5930000000E-01
                       9.2190000000E-01  5.2060000000E-01  7.5000000000E-01
            znucl       20.00000   22.00000    8.00000
 
================================================================================


- Timing analysis has been suppressed with timopt=0



================================================================================

 Suggested references for the acknowledgment of ABINIT usage.

 The users of ABINIT have little formal obligations with respect to the ABINIT group
 (those specified in the GNU General Public License, http://www.gnu.org/copyleft/gpl.txt).
 However, it is common practice in the scientific literature,
 to acknowledge the efforts of people that have made the research possible.
 In this spirit, please find below suggested citations of work written by ABINIT developers,
 corresponding to implementations inside of ABINIT that you have used in the present run.
 Note also that it will be of great value to readers of publications presenting these results,
 to read papers enabling them to understand the theoretical formalism and details
 of the ABINIT implementation.
 For information on why they are suggested, see also https://docs.abinit.org/theory/acknowledgments.
-
- [1] Recent developments in the ABINIT software package.
- Computer Phys. Comm. 205, 106 (2016).
- X.Gonze, F.Jollet, F.Abreu Araujo, D.Adams, B.Amadon, T.Applencourt,
- C.Audouze, J.-M.Beuken, J.Bieder, A.Bokhanchuk, E.Bousquet, F.Bruneval
- D.Caliste, M.Cote, F.Dahm, F.Da Pieve, M.Delaveau, M.Di Gennaro,
- B.Dorado, C.Espejo, G.Geneste, L.Genovese, A.Gerossier, M.Giantomassi,
- Y.Gillet, D.R.Hamann, L.He, G.Jomard, J.Laflamme Janssen, S.Le Roux,
- A.Levitt, A.Lherbier, F.Liu, I.Lukacevic, A.Martin, C.Martins,
- M.J.T.Oliveira, S.Ponce, Y.Pouillon, T.Rangel, G.-M.Rignanese,
- A.H.Romero, B.Rousseau, O.Rubel, A.A.Shukri, M.Stankovski, M.Torrent,
- M.J.Van Setten, B.Van Troeye, M.J.Verstraete, D.Waroquier, J.Wiktor,
- B.Xu, A.Zhou, J.W.Zwanziger.
- Comment: the fourth generic paper describing the ABINIT project.
- Note that a version of this paper, that is not formatted for Computer Phys. Comm. 
- is available at https://www.abinit.org/about/ABINIT16.pdf .
- The licence allows the authors to put it on the Web.
- DOI and bibtex: see https://docs.abinit.org/theory/bibliography/#gonze2016
-
- [2] Optimized norm-conserving Vanderbilt pseudopotentials.
- D.R. Hamann, Phys. Rev. B 88, 085117 (2013).
- Comment: Some pseudopotential generated using the ONCVPSP code were used.
- DOI and bibtex: see https://docs.abinit.org/theory/bibliography/#hamann2013
-
- [3] ABINIT: First-principles approach of materials and nanosystem properties.
- Computer Phys. Comm. 180, 2582-2615 (2009).
- X. Gonze, B. Amadon, P.-M. Anglade, J.-M. Beuken, F. Bottin, P. Boulanger, F. Bruneval,
- D. Caliste, R. Caracas, M. Cote, T. Deutsch, L. Genovese, Ph. Ghosez, M. Giantomassi
- S. Goedecker, D.R. Hamann, P. Hermet, F. Jollet, G. Jomard, S. Leroux, M. Mancini, S. Mazevet,
- M.J.T. Oliveira, G. Onida, Y. Pouillon, T. Rangel, G.-M. Rignanese, D. Sangalli, R. Shaltaf,
- M. Torrent, M.J. Verstraete, G. Zerah, J.W. Zwanziger
- Comment: the third generic paper describing the ABINIT project.
- Note that a version of this paper, that is not formatted for Computer Phys. Comm. 
- is available at https://www.abinit.org/about/ABINIT_CPC_v10.pdf .
- The licence allows the authors to put it on the Web.
- DOI and bibtex: see https://docs.abinit.org/theory/bibliography/#gonze2009
-
- [4] A brief introduction to the ABINIT software package.
- Z. Kristallogr. 220, 558-562 (2005).
- X. Gonze, G.-M. Rignanese, M. Verstraete, J.-M. Beuken, Y. Pouillon, R. Caracas, F. Jollet,
- M. Torrent, G. Zerah, M. Mikami, Ph. Ghosez, M. Veithen, J.-Y. Raty, V. Olevano, F. Bruneval,
- L. Reining, R. Godby, G. Onida, D.R. Hamann, and D.C. Allan.
- Comment: the second generic paper describing the ABINIT project. Note that this paper
- should be cited especially if you are using the GW part of ABINIT, as several authors
- of this part are not in the list of authors of the first or third paper.
- The .pdf of the latter paper is available at https://www.abinit.org/about/zfk_0505-06_558-562.pdf.
- Note that it should not redistributed (Copyright by Oldenburg Wissenshaftverlag,
- the licence allows the authors to put it on the Web).
- DOI and bibtex: see https://docs.abinit.org/theory/bibliography/#gonze2005
-
- And optionally:
-
- [5] First-principles computation of material properties: the ABINIT software project. 
- X. Gonze, J.-M. Beuken, R. Caracas, F. Detraux, M. Fuchs, G.-M. Rignanese, L. Sindic,
- M. Verstraete, G. Zerah, F. Jollet, M. Torrent, A. Roy, M. Mikami, Ph. Ghosez, J.-Y. Raty, D.C. Allan.
- Computational Materials Science 25, 478-492 (2002). http://dx.doi.org/10.1016/S0927-0256(02)00325-7
- Comment: the original paper describing the ABINIT project.
- DOI and bibtex : see https://docs.abinit.org/theory/bibliography/#gonze2002
-
- Proc.   0 individual time (sec): cpu=         80.9  wall=         81.5
 
================================================================================
 
 Calculation completed.
.Delivered   1 WARNINGs and   0 COMMENTs to log file.
+Overall time at end (sec) : cpu=        242.3  wall=        244.5
