--------------------------------------------------------------------------
[[14846,1],1]: A high-performance Open MPI point-to-point messaging module
was unable to find any relevant network interfaces:

Module: OpenFabrics (openib)
  Host: abipy

Another transport will be used instead, although this may result in
lower performance.
--------------------------------------------------------------------------
  ABINIT 8.10.3
  
  Give name for formatted input file: 
tbase4_5.in
  Give name for formatted output file:
tbase4_5.out
  Give root name for generic input files:
tbase4_5i
  Give root name for generic output files:
tbase4_5o
  Give root name for generic temporary files:
tbase4_5

.Version 8.10.3 of ABINIT 
.(MPI version, prepared for a x86_64_linux_gnu5.4 computer) 

.Copyright (C) 1998-2018 ABINIT group . 
 ABINIT comes with ABSOLUTELY NO WARRANTY.
 It is free software, and you are welcome to redistribute it
 under certain conditions (GNU General Public License,
 see ~abinit/COPYING or http://www.gnu.org/copyleft/gpl.txt).

 ABINIT is a project of the Universite Catholique de Louvain,
 Corning Inc. and other collaborators, see ~abinit/doc/developers/contributors.txt .
 Please read https://docs.abinit.org/theory/acknowledgments for suggested
 acknowledgments of the ABINIT effort.
 For more information, see https://www.abinit.org .

.Starting date : Fri 18 Oct 2019.
- ( at 15h07 )
  

 ++++++++++++++++++++++++++++++++++++++++++++++++++++++++++++++++++++++++++++++

 === Build Information === 
  Version       : 8.10.3
  Build target  : x86_64_linux_gnu5.4
  Build date    : 20191016

 === Compiler Suite === 
  C compiler       : gnu5.4
  C++ compiler     : gnu5.4
  Fortran compiler : gnu5.4
  CFLAGS           :  -g -O2 -mtune=native -march=native
  CXXFLAGS         :  -g -O2 -mtune=native -march=native
  FCFLAGS          :  -g -ffree-line-length-none  -fopenmp
  FC_LDFLAGS       : 

 === Optimizations === 
  Debug level        : basic
  Optimization level : standard
  Architecture       : unknown_unknown

 === Multicore === 
  Parallel build : yes
  Parallel I/O   : yes
  openMP support : yes
  GPU support    : no

 === Connectors / Fallbacks === 
  Connectors on : yes
  Fallbacks on  : yes
  DFT flavor    : none
  FFT flavor    : fftw3
  LINALG flavor : atlas
  MATH flavor   : none
  TIMER flavor  : abinit
  TRIO flavor   : netcdf

 === Experimental features === 
  Bindings            : @enable_bindings@
  Exports             : no
  GW double-precision : no

 ++++++++++++++++++++++++++++++++++++++++++++++++++++++++++++++++++++++++++++++


 ++++++++++++++++++++++++++++++++++++++++++++++++++++++++++++++++++++++++++++++
 Default optimizations:
   -O2 -mtune=native -march=native


 Optimizations for 43_ptgroups:
   -O0


 ++++++++++++++++++++++++++++++++++++++++++++++++++++++++++++++++++++++++++++++


 ++++++++++++++++++++++++++++++++++++++++++++++++++++++++++++++++++++++++++++++
 CPP options activated during the build:

                    CC_GNU                   CXX_GNU                    FC_GNU
 
 HAVE_FC_ALLOCATABLE_DT...             HAVE_FC_ASYNC         HAVE_FC_BACKTRACE
 
  HAVE_FC_COMMAND_ARGUMENT      HAVE_FC_COMMAND_LINE        HAVE_FC_CONTIGUOUS
 
           HAVE_FC_CPUTIME              HAVE_FC_EXIT             HAVE_FC_FLUSH
 
             HAVE_FC_GAMMA            HAVE_FC_GETENV   HAVE_FC_IEEE_EXCEPTIONS
 
          HAVE_FC_INT_QUAD             HAVE_FC_IOMSG     HAVE_FC_ISO_C_BINDING
 
  HAVE_FC_ISO_FORTRAN_2008        HAVE_FC_LONG_LINES        HAVE_FC_MOVE_ALLOC
 
           HAVE_FC_PRIVATE         HAVE_FC_PROTECTED         HAVE_FC_STREAM_IO
 
            HAVE_FC_SYSTEM                  HAVE_FFT            HAVE_FFT_FFTW3
 
              HAVE_FFT_MPI           HAVE_FFT_SERIAL          HAVE_FORTRAN2003
 
        HAVE_LIBPAW_ABINIT      HAVE_LIBTETRA_ABINIT               HAVE_LINALG
 
        HAVE_LINALG_SERIAL                  HAVE_MPI                 HAVE_MPI2
 
       HAVE_MPI_IALLREDUCE        HAVE_MPI_IALLTOALL       HAVE_MPI_IALLTOALLV
 
        HAVE_MPI_INTEGER16               HAVE_MPI_IO HAVE_MPI_TYPE_CREATE_S...
 
               HAVE_NETCDF           HAVE_NETCDF_MPI         HAVE_OMP_COLLAPSE
 
               HAVE_OPENMP             HAVE_OS_LINUX         HAVE_TIMER_ABINIT
 
              USE_MACROAVE                                                      
 ++++++++++++++++++++++++++++++++++++++++++++++++++++++++++++++++++++++++++++++

- input  file    -> tbase4_5.in
- output file    -> tbase4_5.out
- root for input  files -> tbase4_5i
- root for output files -> tbase4_5o


--- !WARNING
src_file: m_nctk.F90
src_line: 572
message: |
    netcdf lib does not support MPI-IO and: NetCDF: Parallel operation on file opened for non-parallel access
...

  Asked to delete not existent file: __TMP_FILE__

--- !WARNING
src_file: m_nctk.F90
src_line: 592
message: |
    The netcdf library does not support parallel IO, see message above
    Abinit won't be able to produce files in parallel e.g. when paral_kgb==1 is used.
    Action: install a netcdf4+HDF5 library with MPI-IO support.
...

-instrng: 75 lines of input have been read from file tbase4_5.in


 Please give name of formatted atomic psp file
 iofn2 : for atom type 1, psp file is ../../../../../Psps_for_tests/13al.981214.fhi
  read the values zionpsp=  3.0 , pspcod=   6 , lmax=   2

 inpspheads: deduce mpsang = 3, n1xccc = 0.
 invars1 : treat image number: 1

 symlatt : the Bravais lattice is tP (primitive tetragonal)
  xred   is defined in input file
 ingeo: takes atomic coordinates from input array xred

 symlatt : the Bravais lattice is tP (primitive tetragonal)

 symlatt : the Bravais lattice is tP (primitive tetragonal)
 symspgr : spgroup= 123  P4/m m m   (=D4h^1)
 symspgr : optical characteristics = uniaxial
 Optical axis (in reduced coordinates, real space ) :   0   0   1
 ingeo: angdeg(1:3)=   90.00000000   90.00000000   90.00000000
 invars2: take the default value of fband=  5.00000000E-01
 chkneu : initialized the occupation numbers for occopt=    4, spin-unpolarized or antiferromagnetic case :
  2.00  2.00  2.00  2.00  1.00  0.00  0.00
npfft, npband, npspinor and npkpt:     1    1    1    2
mpi_setup: mkmem  undefined in the input file.Use default mkmem  = nkpt
 mpi_setup: With nkpt_me=3 and mkmem  = 6, ground state wf handled in core.
 Resetting mkmem  to nkpt_me to save memory space.
mpi_setup: mkqmem undefined in the input file.Use default mkqmem = nkpt
 mpi_setup: With nkpt_me=3 and mkqmem = 6, ground state wf handled in core.
 Resetting mkqmem to nkpt_me to save memory space.
mpi_setup: mk1mem undefined in the input file.Use default mk1mem = nkpt
 mpi_setup: With nkpt_me=3 and mk1mem = 6, ground state wf handled in core.
 Resetting mk1mem to nkpt_me to save memory space.
 For input ecut=  6.000000E+00 best grid ngfft=      12      12      36
       max ecut=  6.307140E+00

 ==== FFT mesh ====
  FFT mesh divisions ........................    12   12   36
  Augmented FFT divisions ...................    13   13   36
  FFT algorithm .............................   312
  FFT cache size ............................    16
 getmpw: optimal value of mpw= 300

 Symmetries : space group P4/m m m (#123); Bravais tP (primitive tetrag.)

 getdim_nloc : deduce lmnmax  =   9, lnmax  =   3,
                      lmnmaxso=   9, lnmaxso=   3.
memory : analysis of memory needs
================================================================================
 Values of the parameters that define the memory need of the present run
     intxc =       0    ionmov =       2      iscf =       7    lmnmax =       3
     lnmax =       3     mgfft =      36  mpssoang =       3    mqgrid =    3001
     natom =       3  nloc_mem =       1    nspden =       1   nspinor =       1
    nsppol =       1      nsym =      16    n1xccc =       0    ntypat =       1
    occopt =       4   xclevel =       1
-    mband =           7        mffmem =           1         mkmem =           3
       mpw =         300          nfft =        5184          nkpt =           6
================================================================================
P This job should need less than                       2.804 Mbytes of memory.
  Rough estimation (10% accuracy) of disk space for files :
_ WF disk file :      0.194 Mbytes ; DEN or POT disk file :      0.042 Mbytes.
================================================================================

 Biggest array : f_fftgr(disk), with      0.6348 MBytes.
 memana : allocated an array of      0.635 Mbytes, for testing purposes.
 memana: allocated       2.804Mbytes, for testing purposes. 
 The job will continue.
--------------------------------------------------------------------------------
------------- Echo of variables that govern the present computation ------------
--------------------------------------------------------------------------------
-
- outvars: echo of selected default values                                      
-   iomode0 =  0 , fftalg0 =312 , wfoptalg0 =  0
-
- outvars: echo of global parameters not present in the input file              
-  max_nthreads =    2
-
 -outvars: echo values of preprocessed input variables --------
 
 These variables are accessible in NetCDF format (tbase4_5o_OUT.nc)

            acell      7.5055909000E+00  7.5055909000E+00  7.5055909000E+00 Bohr
              amu      2.69815390E+01
             ecut      6.00000000E+00 Hartree
-          fftalg         312
           ionmov           2
              kpt     -1.25000000E-01  0.00000000E+00  0.00000000E+00
                      -3.75000000E-01  0.00000000E+00  0.00000000E+00
                      -2.50000000E-01  1.25000000E-01  0.00000000E+00
                       5.00000000E-01  1.25000000E-01  0.00000000E+00
                      -3.75000000E-01  2.50000000E-01  0.00000000E+00
                       5.00000000E-01  3.75000000E-01  0.00000000E+00
         kptrlatt        4    4    0     -4    4    0      0    0    1
          kptrlen      1.50111818E+01
P           mkmem           3
            natom           3
            nband           7
            ngfft          12      12      36
             nkpt           6
            nstep          10
             nsym          16
            ntime          10
           ntypat           1
              occ      2.000000  2.000000  2.000000  2.000000  1.000000  0.000000
                       0.000000
                       2.000000  2.000000  2.000000  2.000000  1.000000  0.000000
                       0.000000
                       2.000000  2.000000  2.000000  2.000000  1.000000  0.000000
                       0.000000
                       2.000000  2.000000  2.000000  2.000000  1.000000  0.000000
                       0.000000
                       2.000000  2.000000  2.000000  2.000000  1.000000  0.000000
                       0.000000
                       2.000000  2.000000  2.000000  2.000000  1.000000  0.000000
                       0.000000
           occopt           4
        optforces           1
            rprim      5.0000000000E-01 -5.0000000000E-01  0.0000000000E+00
                       5.0000000000E-01  5.0000000000E-01  0.0000000000E+00
                       0.0000000000E+00  0.0000000000E+00  2.0000000000E+00
           shiftk      5.00000000E-01  5.00000000E-01  0.00000000E+00
          spgroup         123
           symrel      1  0  0   0  1  0   0  0  1      -1  0  0   0 -1  0   0  0 -1
                      -1  0  0   0  1  0   0  0 -1       1  0  0   0 -1  0   0  0  1
                      -1  0  0   0 -1  0   0  0  1       1  0  0   0  1  0   0  0 -1
                       1  0  0   0 -1  0   0  0 -1      -1  0  0   0  1  0   0  0  1
                       0  1  0   1  0  0   0  0  1       0 -1  0  -1  0  0   0  0 -1
                       0 -1  0   1  0  0   0  0 -1       0  1  0  -1  0  0   0  0  1
                       0 -1  0  -1  0  0   0  0  1       0  1  0   1  0  0   0  0 -1
                       0  1  0  -1  0  0   0  0 -1       0 -1  0   1  0  0   0  0  1
            tnons      0.0000000  0.0000000  0.0000000     0.0000000  0.0000000  0.5000000
                       0.0000000  0.0000000  0.5000000     0.0000000  0.0000000  0.0000000
                       0.0000000  0.0000000  0.0000000     0.0000000  0.0000000  0.5000000
                       0.0000000  0.0000000  0.5000000     0.0000000  0.0000000  0.0000000
                       0.0000000  0.0000000  0.0000000     0.0000000  0.0000000  0.5000000
                       0.0000000  0.0000000  0.5000000     0.0000000  0.0000000  0.0000000
                       0.0000000  0.0000000  0.0000000     0.0000000  0.0000000  0.5000000
                       0.0000000  0.0000000  0.5000000     0.0000000  0.0000000  0.0000000
           toldff      5.00000000E-05
           tolmxf      5.00000000E-04
           tsmear      4.00000000E-02 Hartree
            typat      1  1  1
              wtk        0.12500    0.12500    0.25000    0.12500    0.25000    0.12500
           xangst      0.0000000000E+00  0.0000000000E+00  0.0000000000E+00
                       1.9858938206E+00  0.0000000000E+00  1.9858938206E+00
                       0.0000000000E+00  0.0000000000E+00  3.9717876413E+00
            xcart      0.0000000000E+00  0.0000000000E+00  0.0000000000E+00
                       3.7527954500E+00  0.0000000000E+00  3.7527954500E+00
                       0.0000000000E+00  0.0000000000E+00  7.5055909000E+00
             xred      0.0000000000E+00  0.0000000000E+00  0.0000000000E+00
                       5.0000000000E-01  5.0000000000E-01  2.5000000000E-01
                       0.0000000000E+00  0.0000000000E+00  5.0000000000E-01
            znucl       13.00000

================================================================================

 chkinp: Checking input parameters for consistency.
 DATA TYPE INFORMATION: 
 REAL:      Data type name: REAL(DP) 
            Kind value:      8
            Precision:      15
            Smallest nonnegligible quantity relative to 1:  0.22204460E-15
            Smallest positive number:                       0.22250739-307
            Largest representable number:                   0.17976931+309
 INTEGER:   Data type name: INTEGER(default) 
            Kind value: 4
            Bit size:   32
            Largest representable number: 2147483647
 LOGICAL:   Data type name: LOGICAL 
            Kind value: 4
 CHARACTER: Data type name: CHARACTER             Kind value: 1

  ==== OpenMP parallelism is ON ====
- Max_threads:       2
- Num_threads:       2
- Num_procs:         2
- Dynamic:           F
- Nested:            F
 
  ==== Using MPI-2 specifications ==== 
  MPI-IO support is ON
  xmpi_tag_ub ................   2147483647
  xmpi_bsize_ch ..............            1
  xmpi_bsize_int .............            4
  xmpi_bsize_sp ..............            4
  xmpi_bsize_dp ..............            8
  xmpi_bsize_spc .............            8
  xmpi_bsize_dpc .............           16
  xmpio_bsize_frm ............            4
  xmpi_address_kind ..........            8
  xmpi_offset_kind ...........            8
  MPI_WTICK ..................    9.9999999999999995E-007

================================================================================
== DATASET  1 ==================================================================
-   nproc =    2


--- !COMMENT
src_file: m_xgScalapack.F90
src_line: 251
message: |
    xgScalapack in auto mode
...


 getdim_nloc : deduce lmnmax  =   9, lnmax  =   3,
                      lmnmaxso=   9, lnmaxso=   3.
 Exchange-correlation functional for the present dataset will be:
  LDA: new Teter (4/93) with spin-polarized option - ixc=1
 Citation for XC functional:
  S. Goedecker, M. Teter, J. Huetter, PRB 54, 1703 (1996)

 Unit cell volume ucvol=  4.2281917E+02 bohr^3
 Angles (23,13,12)=  9.00000000E+01  9.00000000E+01  9.00000000E+01 degrees

 getcut: wavevector=  0.0000  0.0000  0.0000  ngfft=  12  12  36
         ecut(hartree)=      6.000   => boxcut(ratio)=   2.05055
 kpgio: loop on k-points done in parallel
- pspini: atom type   1  psp file is ../../../../../Psps_for_tests/13al.981214.fhi
- pspatm: opening atomic psp file    ../../../../../Psps_for_tests/13al.981214.fhi
- Aluminum, fhi98PP : Hamann-type, LDA CA PerdewWang, l=2 local
- 13.00000   3.00000    981214                znucl, zion, pspdat
    6    7    2    2       493   0.00000      pspcod,pspxc,lmax,lloc,mmax,r2well

--- !WARNING
src_file: m_pspini.F90
src_line: 1088
message: |
    Pseudopotential file pspxc= 7,
    not equal to input ixc= 1.
    These parameters must agree to get the same xc 
    in ABINIT code as in psp construction.
    Action: check psp design or input file.
    Assume experienced user. Execution will continue.
...

  No XC core correction.
  1.024700          amesh (Hamman grid)
  pspatm : epsatm=    1.36305739
         --- l  ekb(1:nproj) -->
             0    1.768744
             1    0.900554
 pspatm: atomic psp has been read  and splines computed

   3.68025494E+01                                ecore*ucvol(ha*bohr**3)
 ==== Info on pseudopotentials ====
  Norm-conserving pseudopotentials
  Number of pseudopotentials ..    1
  Number of types of atoms   ..    1
  Scalar calculation (no spin-orbit term)
  Nonlocal part applied using Legendre polynomials
  Max number of non-local projectors over l and type   1
  Highest angular momentum +1 .......   3
  Max number of (l,n)   components ..   3
  Max number of (l,m,n) components ..   3

 Info on the Q-grid used for form factors in spline form: 
   Number of q-points for radial functions ffspl ..   3001
   Number of q-points for vlspl ...................   3001
   vloc is computed in Reciprocal Space
   model core charge treated in real-space

  XC functional for type 1 is 7
  Pseudo valence available: no

 wfconv:     7 bands initialized randomly with npw=   286, for ikpt=     1
 wfconv:     7 bands initialized randomly with npw=   290, for ikpt=     2
 wfconv:     7 bands initialized randomly with npw=   290, for ikpt=     3
_setup2: Arith. and geom. avg. npw (full set) are     294.000     293.954
 initro: for itypat=  1, take decay length=      1.2500,
 initro: indeed, coreel=     10.0000, nval=  3 and densty=  0.0000E+00.

================================================================================

=== [ionmov= 2] Broyden-Fletcher-Goldfard-Shanno method (forces)            
================================================================================

--- Iteration: ( 1/10) Internal Cycle: (1/1)
--------------------------------------------------------------------------------

 Cartesian coordinates (xcart) [bohr]
  0.00000000000000E+00  0.00000000000000E+00  0.00000000000000E+00
  3.75279545000000E+00  0.00000000000000E+00  3.75279545000000E+00
  0.00000000000000E+00  0.00000000000000E+00  7.50559090000000E+00
 Reduced coordinates (xred)
  0.00000000000000E+00  0.00000000000000E+00  0.00000000000000E+00
  5.00000000000000E-01  5.00000000000000E-01  2.50000000000000E-01
  0.00000000000000E+00  0.00000000000000E+00  5.00000000000000E-01

---SELF-CONSISTENT-FIELD CONVERGENCE--------------------------------------------

 getcut: wavevector=  0.0000  0.0000  0.0000  ngfft=  12  12  36
         ecut(hartree)=      6.000   => boxcut(ratio)=   2.05055

 ITER STEP NUMBER     1
 vtorho : nnsclo_now=2, note that nnsclo,dbl_nnsclo,istep=0 0 1
 newocc: new Fermi energy is       0.177326 , with nelect=      9.000000
  Number of bissection calls =  46
 newocc : computed new occ. numbers for occopt= 4 , spin-unpolarized case.
 2.000 2.000 2.000 1.282 0.005 0.002 0.000
 2.000 2.000 2.000 2.013 2.136 0.005 0.005
 2.000 2.000 2.000 1.967 0.068 0.004 0.001
 2.000 2.000 2.000 2.000 1.799 0.660 0.000
 2.000 2.000 2.002 2.140 1.529 0.004 0.001
 2.000 2.000 2.116 2.138 0.323 0.081 0.005
mkrho: echo density (plane-wave part only)
 Total charge density [el/Bohr^3]
      Maximum=    3.7537E-02  at reduced coord.    0.0000    0.6667    0.4444
      Minimum=    1.8076E-03  at reduced coord.    0.5000    0.5000    0.7500
   Integrated=    9.0000E+00
 Total charge density [el/Bohr^3]
      Maximum=    3.7537E-02  at reduced coord.    0.0000    0.6667    0.4444
      Minimum=    1.8076E-03  at reduced coord.    0.5000    0.5000    0.7500
   Integrated=    9.0000E+00
  rhotov : is_hybrid_ncpp= F
  rhotov : n3xccc=           0
 ETOT  1  -6.2045257341786    -6.205E+00 2.151E-03 1.072E+02 6.651E-03 6.651E-03
 scprqt: <Vxc>= -3.0716122E-01 hartree

Simple mixing update:
  residual square of the potential :   3.5640974851003930
 scfcv_core: previous iteration took 00 [s]

 ITER STEP NUMBER     2
 vtorho : nnsclo_now=2, note that nnsclo,dbl_nnsclo,istep=0 0 2
 newocc: new Fermi energy is       0.189008 , with nelect=      9.000000
  Number of bissection calls =  48
 newocc : computed new occ. numbers for occopt= 4 , spin-unpolarized case.
 2.000 2.000 2.000 1.701 0.003 0.001 0.000
 2.000 2.000 2.000 2.002 2.141 0.002 0.002
 2.000 2.000 2.000 1.531 0.242 0.005 0.001
 2.000 2.000 2.000 2.000 2.127 1.122 0.000
 2.000 2.000 2.009 2.081 1.392 0.005 0.002
 2.000 2.000 2.134 2.141 0.065 0.012 0.006
mkrho: echo density (plane-wave part only)
 Total charge density [el/Bohr^3]
      Maximum=    3.6130E-02  at reduced coord.    0.0000    0.6667    0.4722
      Minimum=    2.2594E-03  at reduced coord.    0.5000    0.5000    0.7500
   Integrated=    9.0000E+00
 Total charge density [el/Bohr^3]
      Maximum=    3.6130E-02  at reduced coord.    0.0000    0.6667    0.4722
      Minimum=    2.2594E-03  at reduced coord.    0.5000    0.5000    0.7500
   Integrated=    9.0000E+00
  rhotov : is_hybrid_ncpp= F
  rhotov : n3xccc=           0
 ETOT  2  -6.2611659199259    -5.664E-02 3.318E-05 5.681E-01 9.912E-03 3.262E-03
 scprqt: <Vxc>= -3.1036794E-01 hartree

 Pulay update with  1 previous iterations:
 mixing of old trial potential : alpha(m:m-4)=  0.975      0.249E-01
 scfcv_core: previous iteration took 00 [s]

 ITER STEP NUMBER     3
 vtorho : nnsclo_now=1, note that nnsclo,dbl_nnsclo,istep=0 0 3
 newocc: new Fermi energy is       0.186549 , with nelect=      9.000000
  Number of bissection calls =  46
 newocc : computed new occ. numbers for occopt= 4 , spin-unpolarized case.
 2.000 2.000 2.000 1.710 0.003 0.001 0.000
 2.000 2.000 2.000 2.002 2.142 0.002 0.002
 2.000 2.000 2.000 1.591 0.248 0.005 0.001
 2.000 2.000 2.000 2.000 2.130 1.131 0.000
 2.000 2.000 2.008 2.079 1.307 0.005 0.002
 2.000 2.000 2.139 2.142 0.079 0.016 0.009
mkrho: echo density (plane-wave part only)
 Total charge density [el/Bohr^3]
      Maximum=    3.5460E-02  at reduced coord.    0.0000    0.6667    0.4722
      Minimum=    2.3550E-03  at reduced coord.    0.5000    0.5000    0.7500
   Integrated=    9.0000E+00
 Total charge density [el/Bohr^3]
      Maximum=    3.5460E-02  at reduced coord.    0.0000    0.6667    0.4722
      Minimum=    2.3550E-03  at reduced coord.    0.5000    0.5000    0.7500
   Integrated=    9.0000E+00
  rhotov : is_hybrid_ncpp= F
  rhotov : n3xccc=           0
 ETOT  3  -6.2617713938804    -6.055E-04 1.675E-05 4.177E-01 4.978E-04 2.764E-03
 scprqt: <Vxc>= -3.1054703E-01 hartree

 Pulay update with  2 previous iterations:
 mixing of old trial potential : alpha(m:m-4)=   1.16     -0.103     -0.587E-01
 scfcv_core: previous iteration took 00 [s]

 ITER STEP NUMBER     4
 vtorho : nnsclo_now=1, note that nnsclo,dbl_nnsclo,istep=0 0 4
 newocc: new Fermi energy is       0.187073 , with nelect=      9.000000
  Number of bissection calls =  47
 newocc : computed new occ. numbers for occopt= 4 , spin-unpolarized case.
 2.000 2.000 2.000 1.727 0.002 0.001 0.000
 2.000 2.000 2.000 2.002 2.142 0.002 0.002
 2.000 2.000 2.000 1.570 0.259 0.005 0.002
 2.000 2.000 2.000 2.000 2.135 1.159 0.000
 2.000 2.000 2.008 2.075 1.297 0.005 0.002
 2.000 2.000 2.139 2.142 0.073 0.020 0.007
mkrho: echo density (plane-wave part only)
 Total charge density [el/Bohr^3]
      Maximum=    3.5363E-02  at reduced coord.    0.0000    0.6667    0.4722
      Minimum=    2.4293E-03  at reduced coord.    0.5000    0.5000    0.7500
   Integrated=    9.0000E+00
 Total charge density [el/Bohr^3]
      Maximum=    3.5363E-02  at reduced coord.    0.0000    0.6667    0.4722
      Minimum=    2.4293E-03  at reduced coord.    0.5000    0.5000    0.7500
   Integrated=    9.0000E+00
  rhotov : is_hybrid_ncpp= F
  rhotov : n3xccc=           0
 ETOT  4  -6.2619694610443    -1.981E-04 2.044E-05 8.805E-03 6.289E-05 2.827E-03
 scprqt: <Vxc>= -3.1077563E-01 hartree

 Pulay update with  3 previous iterations:
 mixing of old trial potential : alpha(m:m-4)=   1.42     -0.450      0.963E-02  0.161E-01
 scfcv_core: previous iteration took 00 [s]

 ITER STEP NUMBER     5
 vtorho : nnsclo_now=1, note that nnsclo,dbl_nnsclo,istep=0 0 5
 newocc: new Fermi energy is       0.187051 , with nelect=      9.000000
  Number of bissection calls =  48
 newocc : computed new occ. numbers for occopt= 4 , spin-unpolarized case.
 2.000 2.000 2.000 1.727 0.002 0.001 0.000
 2.000 2.000 2.000 2.002 2.142 0.002 0.002
 2.000 2.000 2.000 1.569 0.259 0.005 0.002
 2.000 2.000 2.000 2.000 2.135 1.165 0.000
 2.000 2.000 2.008 2.074 1.296 0.005 0.002
 2.000 2.000 2.140 2.142 0.073 0.020 0.007
mkrho: echo density (plane-wave part only)
 Total charge density [el/Bohr^3]
      Maximum=    3.5351E-02  at reduced coord.    0.0000    0.6667    0.4722
      Minimum=    2.4528E-03  at reduced coord.    0.5000    0.5000    0.7500
   Integrated=    9.0000E+00
 Total charge density [el/Bohr^3]
      Maximum=    3.5351E-02  at reduced coord.    0.0000    0.6667    0.4722
      Minimum=    2.4528E-03  at reduced coord.    0.5000    0.5000    0.7500
   Integrated=    9.0000E+00
  rhotov : is_hybrid_ncpp= F
  rhotov : n3xccc=           0
 ETOT  5  -6.2619738260176    -4.365E-06 5.436E-07 9.053E-05 4.788E-05 2.779E-03
 scprqt: <Vxc>= -3.1082339E-01 hartree

 Pulay update with  4 previous iterations:
 mixing of old trial potential : alpha(m:m-4)=   1.27     -0.362      0.961E-01 -0.171E-02 -0.398E-02
 scfcv_core: previous iteration took 00 [s]

 ITER STEP NUMBER     6
 vtorho : nnsclo_now=1, note that nnsclo,dbl_nnsclo,istep=0 0 6
 newocc: new Fermi energy is       0.187023 , with nelect=      9.000000
  Number of bissection calls =  47
 newocc : computed new occ. numbers for occopt= 4 , spin-unpolarized case.
 2.000 2.000 2.000 1.727 0.002 0.001 0.000
 2.000 2.000 2.000 2.002 2.142 0.002 0.002
 2.000 2.000 2.000 1.568 0.259 0.005 0.002
 2.000 2.000 2.000 2.000 2.135 1.166 0.000
 2.000 2.000 2.008 2.074 1.296 0.005 0.002
 2.000 2.000 2.140 2.142 0.073 0.020 0.007
mkrho: echo density (plane-wave part only)
 Total charge density [el/Bohr^3]
      Maximum=    3.5349E-02  at reduced coord.    0.0000    0.6667    0.4722
      Minimum=    2.4552E-03  at reduced coord.    0.5000    0.5000    0.7500
   Integrated=    9.0000E+00
 Total charge density [el/Bohr^3]
      Maximum=    3.5349E-02  at reduced coord.    0.0000    0.6667    0.4722
      Minimum=    2.4552E-03  at reduced coord.    0.5000    0.5000    0.7500
   Integrated=    9.0000E+00
  rhotov : is_hybrid_ncpp= F
  rhotov : n3xccc=           0
 ETOT  6  -6.2619738807344    -5.472E-08 2.659E-06 7.564E-07 1.936E-06 2.781E-03
 scprqt: <Vxc>= -3.1082815E-01 hartree

 At SCF step    6, forces are converged : 
  for the second time, max diff in force=  1.936E-06 < toldff=  5.000E-05

 Cartesian components of stress tensor (hartree/bohr^3)
  sigma(1 1)=  3.52702368E-05  sigma(3 2)=  0.00000000E+00
  sigma(2 2)=  3.52702368E-05  sigma(3 1)=  0.00000000E+00
  sigma(3 3)=  2.65832618E-04  sigma(2 1)=  0.00000000E+00

 fftdatar_write: About to write data to: tbase4_5o_TIM1_DEN with iomode IO_MODE_FORTRAN
 IO operation completed. cpu_time:       0.0 [s], walltime:       0.0 [s]
 Write iteration in HIST netCDF file

---OUTPUT-----------------------------------------------------------------------

 Cartesian coordinates (xcart) [bohr]
  0.00000000000000E+00  0.00000000000000E+00  0.00000000000000E+00
  3.75279545000000E+00  0.00000000000000E+00  3.75279545000000E+00
  0.00000000000000E+00  0.00000000000000E+00  7.50559090000000E+00
 Reduced coordinates (xred)
  0.00000000000000E+00  0.00000000000000E+00  0.00000000000000E+00
  5.00000000000000E-01  5.00000000000000E-01  2.50000000000000E-01
  0.00000000000000E+00  0.00000000000000E+00  5.00000000000000E-01
 Cartesian forces (fcart) [Ha/bohr]; max,rms= 2.78079E-03 1.31088E-03 (free atoms)
 -0.00000000000000E+00 -0.00000000000000E+00 -2.78079347121510E-03
 -0.00000000000000E+00 -0.00000000000000E+00 -0.00000000000000E+00
 -0.00000000000000E+00 -0.00000000000000E+00  2.78079347121510E-03
 Reduced forces (fred)
 -0.00000000000000E+00  0.00000000000000E+00  4.17429963446629E-02
 -0.00000000000000E+00  0.00000000000000E+00  0.00000000000000E+00
 -0.00000000000000E+00 -0.00000000000000E+00 -4.17429963446629E-02
 Total energy (etotal) [Ha]= -6.26197388073443E+00
 fconv : at Broyd/MD step   1, gradients have not converged yet. 
  max grad (force/stress) = 2.7808E-03 > tolmxf= 5.0000E-04 ha/bohr (free atoms)

Inverse hessian has been initialized.
 EXIT:           1           1
 mover: previous time step took 01 [s]

--- Iteration: ( 2/10) Internal Cycle: (1/1)
--------------------------------------------------------------------------------

 Cartesian coordinates (xcart) [bohr]
  0.00000000000000E+00  0.00000000000000E+00 -2.78079347121510E-03
  3.75279545000000E+00  0.00000000000000E+00  3.75279545000000E+00
  0.00000000000000E+00  0.00000000000000E+00  7.50837169347121E+00
 Reduced coordinates (xred)
  0.00000000000000E+00  0.00000000000000E+00 -1.85248137572692E-04
  5.00000000000000E-01  5.00000000000000E-01  2.50000000000000E-01
  0.00000000000000E+00  0.00000000000000E+00  5.00185248137573E-01

---SELF-CONSISTENT-FIELD CONVERGENCE--------------------------------------------

 getcut: wavevector=  0.0000  0.0000  0.0000  ngfft=  12  12  36
         ecut(hartree)=      6.000   => boxcut(ratio)=   2.05055

 ITER STEP NUMBER     1
 vtorho : nnsclo_now=2, note that nnsclo,dbl_nnsclo,istep=0 0 1
 newocc: new Fermi energy is       0.187068 , with nelect=      9.000000
  Number of bissection calls =  46
 newocc : computed new occ. numbers for occopt= 4 , spin-unpolarized case.
 2.000 2.000 2.000 1.730 0.002 0.001 0.000
 2.000 2.000 2.000 2.002 2.142 0.002 0.002
 2.000 2.000 2.000 1.563 0.261 0.005 0.002
 2.000 2.000 2.000 2.000 2.136 1.175 0.000
 2.000 2.000 2.008 2.073 1.296 0.005 0.002
 2.000 2.000 2.140 2.142 0.071 0.021 0.007
mkrho: echo density (plane-wave part only)
 Total charge density [el/Bohr^3]
      Maximum=    3.5345E-02  at reduced coord.    0.0000    0.6667    0.4722
      Minimum=    2.4617E-03  at reduced coord.    0.5000    0.5000    0.7500
   Integrated=    9.0000E+00
 Total charge density [el/Bohr^3]
      Maximum=    3.5345E-02  at reduced coord.    0.0000    0.6667    0.4722
      Minimum=    2.4617E-03  at reduced coord.    0.5000    0.5000    0.7500
   Integrated=    9.0000E+00
  rhotov : is_hybrid_ncpp= F
  rhotov : n3xccc=           0
 ETOT  1  -6.2619889447019    -6.262E+00 7.262E-07 2.390E-04 9.166E-05 2.689E-03
 scprqt: <Vxc>= -3.1086368E-01 hartree

Simple mixing update:
  residual square of the potential :   2.6458757732511606E-005
 scfcv_core: previous iteration took 00 [s]

 ITER STEP NUMBER     2
 vtorho : nnsclo_now=2, note that nnsclo,dbl_nnsclo,istep=0 0 2
 newocc: new Fermi energy is       0.187075 , with nelect=      9.000000
  Number of bissection calls =  48
 newocc : computed new occ. numbers for occopt= 4 , spin-unpolarized case.
 2.000 2.000 2.000 1.730 0.002 0.001 0.000
 2.000 2.000 2.000 2.002 2.141 0.002 0.002
 2.000 2.000 2.000 1.564 0.261 0.005 0.002
 2.000 2.000 2.000 2.000 2.136 1.174 0.000
 2.000 2.000 2.008 2.073 1.295 0.005 0.002
 2.000 2.000 2.140 2.142 0.072 0.021 0.007
mkrho: echo density (plane-wave part only)
 Total charge density [el/Bohr^3]
      Maximum=    3.5338E-02  at reduced coord.    0.0000    0.6667    0.4722
      Minimum=    2.4618E-03  at reduced coord.    0.5000    0.5000    0.7500
   Integrated=    9.0000E+00
 Total charge density [el/Bohr^3]
      Maximum=    3.5338E-02  at reduced coord.    0.0000    0.6667    0.4722
      Minimum=    2.4618E-03  at reduced coord.    0.5000    0.5000    0.7500
   Integrated=    9.0000E+00
  rhotov : is_hybrid_ncpp= F
  rhotov : n3xccc=           0
 ETOT  2  -6.2619891055998    -1.609E-07 1.745E-07 2.081E-05 2.190E-06 2.691E-03
 scprqt: <Vxc>= -3.1086216E-01 hartree

 Pulay update with  1 previous iterations:
 mixing of old trial potential : alpha(m:m-4)=  0.928      0.719E-01
 scfcv_core: previous iteration took 00 [s]

 ITER STEP NUMBER     3
 vtorho : nnsclo_now=1, note that nnsclo,dbl_nnsclo,istep=0 0 3
 newocc: new Fermi energy is       0.187078 , with nelect=      9.000000
  Number of bissection calls =  48
 newocc : computed new occ. numbers for occopt= 4 , spin-unpolarized case.
 2.000 2.000 2.000 1.730 0.002 0.001 0.000
 2.000 2.000 2.000 2.002 2.141 0.002 0.002
 2.000 2.000 2.000 1.563 0.261 0.005 0.002
 2.000 2.000 2.000 2.000 2.136 1.174 0.000
 2.000 2.000 2.008 2.073 1.295 0.005 0.002
 2.000 2.000 2.140 2.142 0.072 0.021 0.007
mkrho: echo density (plane-wave part only)
 Total charge density [el/Bohr^3]
      Maximum=    3.5338E-02  at reduced coord.    0.0000    0.6667    0.4722
      Minimum=    2.4620E-03  at reduced coord.    0.5000    0.5000    0.7500
   Integrated=    9.0000E+00
 Total charge density [el/Bohr^3]
      Maximum=    3.5338E-02  at reduced coord.    0.0000    0.6667    0.4722
      Minimum=    2.4620E-03  at reduced coord.    0.5000    0.5000    0.7500
   Integrated=    9.0000E+00
  rhotov : is_hybrid_ncpp= F
  rhotov : n3xccc=           0
 ETOT  3  -6.2619891169149    -1.132E-08 7.931E-09 7.497E-08 2.894E-06 2.694E-03
 scprqt: <Vxc>= -3.1086319E-01 hartree

 At SCF step    3, forces are converged : 
  for the second time, max diff in force=  2.894E-06 < toldff=  5.000E-05

 Cartesian components of stress tensor (hartree/bohr^3)
  sigma(1 1)=  3.60832010E-05  sigma(3 2)=  0.00000000E+00
  sigma(2 2)=  3.60832010E-05  sigma(3 1)=  0.00000000E+00
  sigma(3 3)=  2.67189730E-04  sigma(2 1)=  0.00000000E+00

 fftdatar_write: About to write data to: tbase4_5o_TIM2_DEN with iomode IO_MODE_FORTRAN
 IO operation completed. cpu_time:       0.0 [s], walltime:       0.0 [s]
 Write iteration in HIST netCDF file

---OUTPUT-----------------------------------------------------------------------

 Cartesian coordinates (xcart) [bohr]
  0.00000000000000E+00  0.00000000000000E+00 -2.78079347121510E-03
  3.75279545000000E+00  0.00000000000000E+00  3.75279545000000E+00
  0.00000000000000E+00  0.00000000000000E+00  7.50837169347121E+00
 Reduced coordinates (xred)
  0.00000000000000E+00  0.00000000000000E+00 -1.85248137572692E-04
  5.00000000000000E-01  5.00000000000000E-01  2.50000000000000E-01
  0.00000000000000E+00  0.00000000000000E+00  5.00185248137573E-01
 Cartesian forces (fcart) [Ha/bohr]; max,rms= 2.69421E-03 1.27007E-03 (free atoms)
 -0.00000000000000E+00 -0.00000000000000E+00 -2.69421482980085E-03
 -0.00000000000000E+00 -0.00000000000000E+00 -0.00000000000000E+00
 -0.00000000000000E+00 -0.00000000000000E+00  2.69421482980085E-03
 Reduced forces (fred)
 -0.00000000000000E+00  0.00000000000000E+00  4.04433486183966E-02
 -0.00000000000000E+00  0.00000000000000E+00  0.00000000000000E+00
 -0.00000000000000E+00 -0.00000000000000E+00 -4.04433486183966E-02
 Total energy (etotal) [Ha]= -6.26198911691493E+00

 Difference of energy with previous step (new-old):
           Absolute (Ha)=-1.52362E-05
           Relative     =-2.43312E-06
 fconv : at Broyd/MD step   2, gradients have not converged yet. 
  max grad (force/stress) = 2.6942E-03 > tolmxf= 5.0000E-04 ha/bohr (free atoms)

 EXIT:           1           1
 mover: previous time step took 00 [s]

--- Iteration: ( 3/10) Internal Cycle: (1/1)
--------------------------------------------------------------------------------

 Cartesian coordinates (xcart) [bohr]
  0.00000000000000E+00  0.00000000000000E+00 -8.93154732303313E-02
  3.75279545000000E+00  0.00000000000000E+00  3.75279545000000E+00
  0.00000000000000E+00  0.00000000000000E+00  7.59490637323033E+00
 Reduced coordinates (xred)
  0.00000000000000E+00  0.00000000000000E+00 -5.94992948725272E-03
  5.00000000000000E-01  5.00000000000000E-01  2.50000000000000E-01
  0.00000000000000E+00  0.00000000000000E+00  5.05949929487253E-01

---SELF-CONSISTENT-FIELD CONVERGENCE--------------------------------------------

 getcut: wavevector=  0.0000  0.0000  0.0000  ngfft=  12  12  36
         ecut(hartree)=      6.000   => boxcut(ratio)=   2.05055

 ITER STEP NUMBER     1
 vtorho : nnsclo_now=2, note that nnsclo,dbl_nnsclo,istep=0 0 1
 newocc: new Fermi energy is       0.188830 , with nelect=      9.000000
  Number of bissection calls =  46
 newocc : computed new occ. numbers for occopt= 4 , spin-unpolarized case.
 2.000 2.000 2.000 1.799 0.000 0.001 0.000
 2.000 2.000 2.000 2.001 2.141 0.000 0.001
 2.000 2.000 2.000 1.383 0.309 0.005 0.003
 2.000 2.000 2.000 2.000 2.141 1.447 0.000
 2.000 2.000 2.013 2.051 1.274 0.005 0.003
 2.000 2.000 2.141 2.142 0.063 0.029 0.002
mkrho: echo density (plane-wave part only)
 Total charge density [el/Bohr^3]
      Maximum=    3.5097E-02  at reduced coord.    0.0000    0.6667    0.4722
      Minimum=    2.5623E-03  at reduced coord.    0.5000    0.5000    0.2500
   Integrated=    9.0000E+00
 Total charge density [el/Bohr^3]
      Maximum=    3.5097E-02  at reduced coord.    0.0000    0.6667    0.4722
      Minimum=    2.5623E-03  at reduced coord.    0.5000    0.5000    0.2500
   Integrated=    9.0000E+00
  rhotov : is_hybrid_ncpp= F
  rhotov : n3xccc=           0
 ETOT  1  -6.2620668728780    -6.262E+00 2.574E-07 2.433E-01 2.811E-03 1.170E-04
 scprqt: <Vxc>= -3.1196310E-01 hartree

Simple mixing update:
  residual square of the potential :   2.1236040994079528E-002
 scfcv_core: previous iteration took 00 [s]

 ITER STEP NUMBER     2
 vtorho : nnsclo_now=2, note that nnsclo,dbl_nnsclo,istep=0 0 2
 newocc: new Fermi energy is       0.188902 , with nelect=      9.000000
  Number of bissection calls =  47
 newocc : computed new occ. numbers for occopt= 4 , spin-unpolarized case.
 2.000 2.000 2.000 1.794 0.000 0.001 0.000
 2.000 2.000 2.000 2.001 2.141 0.000 0.001
 2.000 2.000 2.000 1.420 0.305 0.005 0.003
 2.000 2.000 2.000 2.000 2.141 1.434 0.000
 2.000 2.000 2.012 2.052 1.250 0.005 0.003
 2.000 2.000 2.141 2.142 0.060 0.034 0.002
mkrho: echo density (plane-wave part only)
 Total charge density [el/Bohr^3]
      Maximum=    3.4931E-02  at reduced coord.    0.0000    0.6667    0.4722
      Minimum=    2.5818E-03  at reduced coord.    0.5000    0.5000    0.2500
   Integrated=    9.0000E+00
 Total charge density [el/Bohr^3]
      Maximum=    3.4931E-02  at reduced coord.    0.0000    0.6667    0.4722
      Minimum=    2.5818E-03  at reduced coord.    0.5000    0.5000    0.2500
   Integrated=    9.0000E+00
  rhotov : is_hybrid_ncpp= F
  rhotov : n3xccc=           0
 ETOT  2  -6.2622157598865    -1.489E-04 1.734E-08 1.700E-02 8.930E-05 2.771E-05
 scprqt: <Vxc>= -3.1190583E-01 hartree

 Pulay update with  1 previous iterations:
 mixing of old trial potential : alpha(m:m-4)=  0.912      0.881E-01
 scfcv_core: previous iteration took 00 [s]

 ITER STEP NUMBER     3
 vtorho : nnsclo_now=1, note that nnsclo,dbl_nnsclo,istep=0 0 3
 newocc: new Fermi energy is       0.189004 , with nelect=      9.000000
  Number of bissection calls =  44
 newocc : computed new occ. numbers for occopt= 4 , spin-unpolarized case.
 2.000 2.000 2.000 1.797 0.000 0.001 0.000
 2.000 2.000 2.000 2.001 2.141 0.000 0.001
 2.000 2.000 2.000 1.412 0.307 0.005 0.003
 2.000 2.000 2.000 2.000 2.141 1.437 0.000
 2.000 2.000 2.012 2.051 1.252 0.005 0.003
 2.000 2.000 2.141 2.142 0.061 0.033 0.002
mkrho: echo density (plane-wave part only)
 Total charge density [el/Bohr^3]
      Maximum=    3.4944E-02  at reduced coord.    0.0000    0.6667    0.4722
      Minimum=    2.5762E-03  at reduced coord.    0.5000    0.5000    0.2500
   Integrated=    9.0000E+00
 Total charge density [el/Bohr^3]
      Maximum=    3.4944E-02  at reduced coord.    0.0000    0.6667    0.4722
      Minimum=    2.5762E-03  at reduced coord.    0.5000    0.5000    0.2500
   Integrated=    9.0000E+00
  rhotov : is_hybrid_ncpp= F
  rhotov : n3xccc=           0
 ETOT  3  -6.2622250014077    -9.242E-06 8.916E-08 7.206E-05 7.669E-05 4.899E-05
 scprqt: <Vxc>= -3.1193105E-01 hartree

 Pulay update with  2 previous iterations:
 mixing of old trial potential : alpha(m:m-4)=   1.03     -0.591E-02 -0.193E-01
 scfcv_core: previous iteration took 00 [s]

 ITER STEP NUMBER     4
 vtorho : nnsclo_now=1, note that nnsclo,dbl_nnsclo,istep=0 0 4
 newocc: new Fermi energy is       0.188981 , with nelect=      9.000000
  Number of bissection calls =  48
 newocc : computed new occ. numbers for occopt= 4 , spin-unpolarized case.
 2.000 2.000 2.000 1.797 0.000 0.001 0.000
 2.000 2.000 2.000 2.001 2.141 0.000 0.001
 2.000 2.000 2.000 1.412 0.307 0.005 0.003
 2.000 2.000 2.000 2.000 2.141 1.437 0.000
 2.000 2.000 2.012 2.051 1.251 0.005 0.003
 2.000 2.000 2.141 2.142 0.061 0.033 0.002
mkrho: echo density (plane-wave part only)
 Total charge density [el/Bohr^3]
      Maximum=    3.4939E-02  at reduced coord.    0.0000    0.6667    0.4722
      Minimum=    2.5763E-03  at reduced coord.    0.5000    0.5000    0.2500
   Integrated=    9.0000E+00
 Total charge density [el/Bohr^3]
      Maximum=    3.4939E-02  at reduced coord.    0.0000    0.6667    0.4722
      Minimum=    2.5763E-03  at reduced coord.    0.5000    0.5000    0.2500
   Integrated=    9.0000E+00
  rhotov : is_hybrid_ncpp= F
  rhotov : n3xccc=           0
 ETOT  4  -6.2622250701666    -6.876E-08 1.040E-09 4.981E-06 2.693E-06 5.168E-05
 scprqt: <Vxc>= -3.1193183E-01 hartree

 Pulay update with  3 previous iterations:
 mixing of old trial potential : alpha(m:m-4)=   1.20     -0.185     -0.147E-01  0.259E-02
 scfcv_core: previous iteration took 00 [s]

 ITER STEP NUMBER     5
 vtorho : nnsclo_now=1, note that nnsclo,dbl_nnsclo,istep=0 0 5
 newocc: new Fermi energy is       0.188983 , with nelect=      9.000000
  Number of bissection calls =  48
 newocc : computed new occ. numbers for occopt= 4 , spin-unpolarized case.
 2.000 2.000 2.000 1.797 0.000 0.001 0.000
 2.000 2.000 2.000 2.001 2.141 0.000 0.001
 2.000 2.000 2.000 1.412 0.307 0.005 0.003
 2.000 2.000 2.000 2.000 2.141 1.437 0.000
 2.000 2.000 2.012 2.051 1.251 0.005 0.003
 2.000 2.000 2.141 2.142 0.061 0.033 0.002
mkrho: echo density (plane-wave part only)
 Total charge density [el/Bohr^3]
      Maximum=    3.4939E-02  at reduced coord.    0.0000    0.6667    0.4722
      Minimum=    2.5762E-03  at reduced coord.    0.5000    0.5000    0.2500
   Integrated=    9.0000E+00
 Total charge density [el/Bohr^3]
      Maximum=    3.4939E-02  at reduced coord.    0.0000    0.6667    0.4722
      Minimum=    2.5762E-03  at reduced coord.    0.5000    0.5000    0.2500
   Integrated=    9.0000E+00
  rhotov : is_hybrid_ncpp= F
  rhotov : n3xccc=           0
 ETOT  5  -6.2622250726287    -2.462E-09 3.904E-11 2.294E-07 4.079E-07 5.209E-05
 scprqt: <Vxc>= -3.1193263E-01 hartree

 At SCF step    5, forces are converged : 
  for the second time, max diff in force=  4.079E-07 < toldff=  5.000E-05

 Cartesian components of stress tensor (hartree/bohr^3)
  sigma(1 1)=  5.87254725E-05  sigma(3 2)=  0.00000000E+00
  sigma(2 2)=  5.87254725E-05  sigma(3 1)=  0.00000000E+00
  sigma(3 3)=  3.11557837E-04  sigma(2 1)=  0.00000000E+00

 fftdatar_write: About to write data to: tbase4_5o_TIM3_DEN with iomode IO_MODE_FORTRAN
 IO operation completed. cpu_time:       0.0 [s], walltime:       0.0 [s]
 Write iteration in HIST netCDF file

---OUTPUT-----------------------------------------------------------------------

 Cartesian coordinates (xcart) [bohr]
  0.00000000000000E+00  0.00000000000000E+00 -8.93154732303313E-02
  3.75279545000000E+00  0.00000000000000E+00  3.75279545000000E+00
  0.00000000000000E+00  0.00000000000000E+00  7.59490637323033E+00
 Reduced coordinates (xred)
  0.00000000000000E+00  0.00000000000000E+00 -5.94992948725272E-03
  5.00000000000000E-01  5.00000000000000E-01  2.50000000000000E-01
  0.00000000000000E+00  0.00000000000000E+00  5.05949929487253E-01
 Cartesian forces (fcart) [Ha/bohr]; max,rms= 5.20881E-05 2.45546E-05 (free atoms)
 -0.00000000000000E+00 -0.00000000000000E+00 -5.20880777946496E-05
 -0.00000000000000E+00 -0.00000000000000E+00 -0.00000000000000E+00
 -0.00000000000000E+00 -0.00000000000000E+00  5.20880777946496E-05
 Reduced forces (fred)
 -0.00000000000000E+00  0.00000000000000E+00  7.81903605388027E-04
 -0.00000000000000E+00  0.00000000000000E+00  0.00000000000000E+00
 -0.00000000000000E+00 -0.00000000000000E+00 -7.81903605388027E-04
 Total energy (etotal) [Ha]= -6.26222507262875E+00

 Difference of energy with previous step (new-old):
           Absolute (Ha)=-2.35956E-04
           Relative     =-3.76799E-05

 At Broyd/MD step   3, gradients are converged : 
  max grad (force/stress) = 5.2088E-05 < tolmxf= 5.0000E-04 ha/bohr (free atoms)

================================================================================

 ----iterations are completed or convergence reached----

 Mean square residual over all n,k,spin=   54.881E-13; max=  39.039E-12
  -0.1250  0.0000  0.0000    1  3.90395E-11 kpt; spin; max resid(k); each band:
  2.60E-12 7.83E-13 3.90E-11 1.36E-12 3.71E-11 2.68E-12 8.45E-14
  -0.3750  0.0000  0.0000    1  2.17030E-12 kpt; spin; max resid(k); each band:
  1.78E-12 7.52E-13 1.87E-12 1.67E-12 1.72E-13 2.17E-12 6.12E-13
  -0.2500  0.1250  0.0000    1  3.45071E-11 kpt; spin; max resid(k); each band:
  2.34E-12 7.73E-13 3.37E-11 8.64E-13 1.49E-12 3.83E-13 3.45E-11
   0.5000  0.1250  0.0000    1  2.99322E-12 kpt; spin; max resid(k); each band:
  6.50E-13 2.84E-12 4.09E-13 3.80E-14 7.00E-13 2.99E-12 2.83E-13
  -0.3750  0.2500  0.0000    1  3.26187E-11 kpt; spin; max resid(k); each band:
  1.79E-12 1.56E-13 1.73E-12 1.76E-12 1.40E-13 1.50E-11 3.26E-11
   0.5000  0.3750  0.0000    1  8.85634E-13 kpt; spin; max resid(k); each band:
  8.86E-13 3.31E-14 5.39E-14 1.36E-13 8.71E-13 5.14E-13 1.21E-13

 outwf: write wavefunction to file tbase4_5o_WFK, with iomode -1
 outwf with iomode: -1, cpu_time:     0.00[s], walltime:     0.00 [s]
 prteigrs : about to open file tbase4_5o_EIG
 Fermi (or HOMO) energy (hartree) =   0.18898   Average Vxc (hartree)=  -0.31193
 Eigenvalues (hartree) for nkpt=   6  k points:
 kpt#   1, nband=  7, wtk=  0.12500, kpt= -0.1250  0.0000  0.0000 (reduced coord)
  -0.19299   -0.10479   -0.00963    0.16538    0.23944    0.29526    0.37433
      occupation numbers for kpt#   1
   2.00000    2.00000    2.00000    1.79687    0.00013    0.00067    0.00000
 kpt#   2, nband=  7, wtk=  0.12500, kpt= -0.3750  0.0000  0.0000 (reduced coord)
  -0.10814   -0.02108    0.05743    0.07291    0.14194    0.23861    0.24392
      occupation numbers for kpt#   2
   2.00000    2.00000    2.00010    2.00087    2.14054    0.00003    0.00142
 kpt#   3, nband=  7, wtk=  0.25000, kpt= -0.2500  0.1250  0.0000 (reduced coord)
  -0.15037   -0.06276    0.03207    0.17584    0.20419    0.25960    0.27930
      occupation numbers for kpt#   3
   2.00000    2.00000    2.00000    1.41231    0.30738    0.00526    0.00255
 kpt#   4, nband=  7, wtk=  0.12500, kpt=  0.5000  0.1250  0.0000 (reduced coord)
  -0.02752   -0.02187    0.06102    0.06129    0.13868    0.17524    0.30634
      occupation numbers for kpt#   4
   2.00000    2.00000    2.00017    2.00018    2.14130    1.43721    0.00020
 kpt#   5, nband=  7, wtk=  0.25000, kpt= -0.3750  0.2500  0.0000 (reduced coord)
  -0.06631    0.02020    0.09610    0.11382    0.17960    0.26600    0.27592
      occupation numbers for kpt#   5
   2.00000    2.00000    2.01202    2.05136    1.25134    0.00483    0.00315
 kpt#   6, nband=  7, wtk=  0.12500, kpt=  0.5000  0.3750  0.0000 (reduced coord)
   0.05316    0.05816    0.13866    0.14092    0.21872    0.22254    0.23281
      occupation numbers for kpt#   6
   2.00005    2.00011    2.14129    2.14155    0.06136    0.03333    0.00219
 Total charge density [el/Bohr^3]
      Maximum=    3.4939E-02  at reduced coord.    0.0000    0.6667    0.4722
 Next maximum=    3.4939E-02  at reduced coord.    0.0000    0.3333    0.4722
      Minimum=    2.5762E-03  at reduced coord.    0.5000    0.5000    0.2500
 Next minimum=    2.6859E-03  at reduced coord.    0.5000    0.5000    0.7500
   Integrated=    9.0000E+00

 Cartesian components of stress tensor (hartree/bohr^3)
  sigma(1 1)=  5.87254725E-05  sigma(3 2)=  0.00000000E+00
  sigma(2 2)=  5.87254725E-05  sigma(3 1)=  0.00000000E+00
  sigma(3 3)=  3.11557837E-04  sigma(2 1)=  0.00000000E+00

-Cartesian components of stress tensor (GPa)         [Pressure= -4.2073E+00 GPa]
- sigma(1 1)=  1.72776276E+00  sigma(3 2)=  0.00000000E+00
- sigma(2 2)=  1.72776276E+00  sigma(3 1)=  0.00000000E+00
- sigma(3 3)=  9.16634648E+00  sigma(2 1)=  0.00000000E+00

== END DATASET(S) ==============================================================
================================================================================
  
 -outvars: echo values of variables after computation  --------
 
 These variables are accessible in NetCDF format (tbase4_5o_OUT.nc)

            acell      7.5055909000E+00  7.5055909000E+00  7.5055909000E+00 Bohr
              amu      2.69815390E+01
             ecut      6.00000000E+00 Hartree
           etotal     -6.2622250726E+00
            fcart     -0.0000000000E+00 -0.0000000000E+00 -5.2088077795E-05
                      -0.0000000000E+00 -0.0000000000E+00 -0.0000000000E+00
                      -0.0000000000E+00 -0.0000000000E+00  5.2088077795E-05
-          fftalg         312
           ionmov           2
              kpt     -1.25000000E-01  0.00000000E+00  0.00000000E+00
                      -3.75000000E-01  0.00000000E+00  0.00000000E+00
                      -2.50000000E-01  1.25000000E-01  0.00000000E+00
                       5.00000000E-01  1.25000000E-01  0.00000000E+00
                      -3.75000000E-01  2.50000000E-01  0.00000000E+00
                       5.00000000E-01  3.75000000E-01  0.00000000E+00
         kptrlatt        4    4    0     -4    4    0      0    0    1
          kptrlen      1.50111818E+01
P           mkmem           3
            natom           3
            nband           7
            ngfft          12      12      36
             nkpt           6
            nstep          10
             nsym          16
            ntime          10
           ntypat           1
              occ      2.000000  2.000000  2.000000  1.796869  0.000126  0.000675
                       0.000000
                       2.000000  2.000000  2.000100  2.000875  2.140542  0.000032
                       0.001420
                       2.000000  2.000000  2.000001  1.412306  0.307382  0.005258
                       0.002554
                       2.000000  2.000000  2.000170  2.000177  2.141302  1.437214
                       0.000202
                       2.000000  2.000000  2.012020  2.051362  1.251342  0.004830
                       0.003147
                       2.000052  2.000111  2.141288  2.141552  0.061363  0.033330
                       0.002194
           occopt           4
        optforces           1
            rprim      5.0000000000E-01 -5.0000000000E-01  0.0000000000E+00
                       5.0000000000E-01  5.0000000000E-01  0.0000000000E+00
                       0.0000000000E+00  0.0000000000E+00  2.0000000000E+00
           shiftk      5.00000000E-01  5.00000000E-01  0.00000000E+00
          spgroup         123
           strten      5.8725472470E-05  5.8725472470E-05  3.1155783666E-04
                       0.0000000000E+00  0.0000000000E+00  0.0000000000E+00
           symrel      1  0  0   0  1  0   0  0  1      -1  0  0   0 -1  0   0  0 -1
                      -1  0  0   0  1  0   0  0 -1       1  0  0   0 -1  0   0  0  1
                      -1  0  0   0 -1  0   0  0  1       1  0  0   0  1  0   0  0 -1
                       1  0  0   0 -1  0   0  0 -1      -1  0  0   0  1  0   0  0  1
                       0  1  0   1  0  0   0  0  1       0 -1  0  -1  0  0   0  0 -1
                       0 -1  0   1  0  0   0  0 -1       0  1  0  -1  0  0   0  0  1
                       0 -1  0  -1  0  0   0  0  1       0  1  0   1  0  0   0  0 -1
                       0  1  0  -1  0  0   0  0 -1       0 -1  0   1  0  0   0  0  1
            tnons      0.0000000  0.0000000  0.0000000     0.0000000  0.0000000  0.5000000
                       0.0000000  0.0000000  0.5000000     0.0000000  0.0000000  0.0000000
                       0.0000000  0.0000000  0.0000000     0.0000000  0.0000000  0.5000000
                       0.0000000  0.0000000  0.5000000     0.0000000  0.0000000  0.0000000
                       0.0000000  0.0000000  0.0000000     0.0000000  0.0000000  0.5000000
                       0.0000000  0.0000000  0.5000000     0.0000000  0.0000000  0.0000000
                       0.0000000  0.0000000  0.0000000     0.0000000  0.0000000  0.5000000
                       0.0000000  0.0000000  0.5000000     0.0000000  0.0000000  0.0000000
           toldff      5.00000000E-05
           tolmxf      5.00000000E-04
           tsmear      4.00000000E-02 Hartree
            typat      1  1  1
              wtk        0.12500    0.12500    0.25000    0.12500    0.25000    0.12500
           xangst      0.0000000000E+00  0.0000000000E+00 -4.7263712808E-02
                       1.9858938206E+00  0.0000000000E+00  1.9858938206E+00
                       0.0000000000E+00  0.0000000000E+00  4.0190513541E+00
            xcart      0.0000000000E+00  0.0000000000E+00 -8.9315473230E-02
                       3.7527954500E+00  0.0000000000E+00  3.7527954500E+00
                       0.0000000000E+00  0.0000000000E+00  7.5949063732E+00
             xred      0.0000000000E+00  0.0000000000E+00 -5.9499294873E-03
                       5.0000000000E-01  5.0000000000E-01  2.5000000000E-01
                       0.0000000000E+00  0.0000000000E+00  5.0594992949E-01
            znucl       13.00000

================================================================================
  

================================================================================

 Suggested references for the acknowledgment of ABINIT usage.

 The users of ABINIT have little formal obligations with respect to the ABINIT group
 (those specified in the GNU General Public License, http://www.gnu.org/copyleft/gpl.txt).
 However, it is common practice in the scientific literature,
 to acknowledge the efforts of people that have made the research possible.
 In this spirit, please find below suggested citations of work written by ABINIT developers,
 corresponding to implementations inside of ABINIT that you have used in the present run.
 Note also that it will be of great value to readers of publications presenting these results,
 to read papers enabling them to understand the theoretical formalism and details
 of the ABINIT implementation.
 For information on why they are suggested, see also https://docs.abinit.org/theory/acknowledgments.
-
- [1] Recent developments in the ABINIT software package.
- Computer Phys. Comm. 205, 106 (2016).
- X.Gonze, F.Jollet, F.Abreu Araujo, D.Adams, B.Amadon, T.Applencourt,
- C.Audouze, J.-M.Beuken, J.Bieder, A.Bokhanchuk, E.Bousquet, F.Bruneval
- D.Caliste, M.Cote, F.Dahm, F.Da Pieve, M.Delaveau, M.Di Gennaro,
- B.Dorado, C.Espejo, G.Geneste, L.Genovese, A.Gerossier, M.Giantomassi,
- Y.Gillet, D.R.Hamann, L.He, G.Jomard, J.Laflamme Janssen, S.Le Roux,
- A.Levitt, A.Lherbier, F.Liu, I.Lukacevic, A.Martin, C.Martins,
- M.J.T.Oliveira, S.Ponce, Y.Pouillon, T.Rangel, G.-M.Rignanese,
- A.H.Romero, B.Rousseau, O.Rubel, A.A.Shukri, M.Stankovski, M.Torrent,
- M.J.Van Setten, B.Van Troeye, M.J.Verstraete, D.Waroquier, J.Wiktor,
- B.Xu, A.Zhou, J.W.Zwanziger.
- Comment : the fourth generic paper describing the ABINIT project.
- Note that a version of this paper, that is not formatted for Computer Phys. Comm. 
- is available at https://www.abinit.org/about/ABINIT16.pdf .
- The licence allows the authors to put it on the Web.
- DOI and bibtex : see https://docs.abinit.org/theory/bibliography/#gonze2016
-
- [2] Ab initio pseudopotentials for electronic structure calculations of poly-atomic systems, 
- using density-functional theory.
- M. Fuchs, M. Scheffler, Comput. Phys. Commun. 119, 67 (1999).
- Comment : Some pseudopotential generated using the FHI code were used.
- DOI and bibtex : see https://docs.abinit.org/theory/bibliography/#fuchs1999
-
- [3] ABINIT : First-principles approach of materials and nanosystem properties.
- Computer Phys. Comm. 180, 2582-2615 (2009).
- X. Gonze, B. Amadon, P.-M. Anglade, J.-M. Beuken, F. Bottin, P. Boulanger, F. Bruneval,
- D. Caliste, R. Caracas, M. Cote, T. Deutsch, L. Genovese, Ph. Ghosez, M. Giantomassi
- S. Goedecker, D.R. Hamann, P. Hermet, F. Jollet, G. Jomard, S. Leroux, M. Mancini, S. Mazevet,
- M.J.T. Oliveira, G. Onida, Y. Pouillon, T. Rangel, G.-M. Rignanese, D. Sangalli, R. Shaltaf,
- M. Torrent, M.J. Verstraete, G. Zerah, J.W. Zwanziger
- Comment : the third generic paper describing the ABINIT project.
- Note that a version of this paper, that is not formatted for Computer Phys. Comm. 
- is available at https://www.abinit.org/about/ABINIT_CPC_v10.pdf .
- The licence allows the authors to put it on the Web.
- DOI and bibtex : see https://docs.abinit.org/theory/bibliography/#gonze2009
-
- [4] A brief introduction to the ABINIT software package.
- Z. Kristallogr. 220, 558-562 (2005).
- X. Gonze, G.-M. Rignanese, M. Verstraete, J.-M. Beuken, Y. Pouillon, R. Caracas, F. Jollet,
- M. Torrent, G. Zerah, M. Mikami, Ph. Ghosez, M. Veithen, J.-Y. Raty, V. Olevano, F. Bruneval,
- L. Reining, R. Godby, G. Onida, D.R. Hamann, and D.C. Allan.
- Comment : the second generic paper describing the ABINIT project. Note that this paper
- should be cited especially if you are using the GW part of ABINIT, as several authors
- of this part are not in the list of authors of the first or third paper.
- The .pdf of the latter paper is available at https://www.abinit.org/about/zfk_0505-06_558-562.pdf.
- Note that it should not redistributed (Copyright by Oldenburg Wissenshaftverlag,
- the licence allows the authors to put it on the Web).
- DOI and bibtex : see https://docs.abinit.org/theory/bibliography/#gonze2005
-
- And optionally:
-
- [5] First-principles computation of material properties : the ABINIT software project. 
- X. Gonze, J.-M. Beuken, R. Caracas, F. Detraux, M. Fuchs, G.-M. Rignanese, L. Sindic,
- M. Verstraete, G. Zerah, F. Jollet, M. Torrent, A. Roy, M. Mikami, Ph. Ghosez, J.-Y. Raty, D.C. Allan.
- Computational Materials Science 25, 478-492 (2002). http://dx.doi.org/10.1016/S0927-0256(02)00325-7
- Comment : the original paper describing the ABINIT project.
- DOI and bibtex : see https://docs.abinit.org/theory/bibliography/#gonze2002
 Proc.   0 individual time (sec): cpu=          3.6  wall=          3.0

 Calculation completed.
.Delivered   0 WARNINGs and   0 COMMENTs to log file.

--- !FinalSummary
program: abinit
version: 8.10.3
start_datetime: Fri Oct 18 15:07:29 2019
end_datetime: Fri Oct 18 15:07:32 2019
overall_cpu_time:           7.2
overall_wall_time:           6.0
exit_requested_by_user: no 
timelimit: 0
pseudos: 
    Al  : 45177dc68580e70ffd690f1e65e9b174
usepaw: 0
mpi_procs: 2
omp_threads: 2
num_warnings: 0
num_comments: 0
...
