--------------------------------------------------------------------------
[[14162,1],1]: A high-performance Open MPI point-to-point messaging module
was unable to find any relevant network interfaces:

Module: OpenFabrics (openib)
  Host: abipy

Another transport will be used instead, although this may result in
lower performance.
--------------------------------------------------------------------------
  ABINIT 8.10.3
  
  Give name for formatted input file: 
tbase4_4.in
  Give name for formatted output file:
tbase4_4.out
  Give root name for generic input files:
tbase4_4i
  Give root name for generic output files:
tbase4_4o
  Give root name for generic temporary files:
tbase4_4

--- !COMMENT
src_file: m_dtfil.F90
src_line: 1159
message: |
    Output file tbase4_4.out
     already exists.
...


--- !COMMENT
src_file: m_dtfil.F90
src_line: 1183
message: |
    Renaming old tbase4_4.out to tbase4_4.out0001
...


.Version 8.10.3 of ABINIT 
.(MPI version, prepared for a x86_64_linux_gnu5.4 computer) 

.Copyright (C) 1998-2018 ABINIT group . 
 ABINIT comes with ABSOLUTELY NO WARRANTY.
 It is free software, and you are welcome to redistribute it
 under certain conditions (GNU General Public License,
 see ~abinit/COPYING or http://www.gnu.org/copyleft/gpl.txt).

 ABINIT is a project of the Universite Catholique de Louvain,
 Corning Inc. and other collaborators, see ~abinit/doc/developers/contributors.txt .
 Please read https://docs.abinit.org/theory/acknowledgments for suggested
 acknowledgments of the ABINIT effort.
 For more information, see https://www.abinit.org .

.Starting date : Fri 18 Oct 2019.
- ( at 16h46 )
  

 ++++++++++++++++++++++++++++++++++++++++++++++++++++++++++++++++++++++++++++++

 === Build Information === 
  Version       : 8.10.3
  Build target  : x86_64_linux_gnu5.4
  Build date    : 20191016

 === Compiler Suite === 
  C compiler       : gnu5.4
  C++ compiler     : gnu5.4
  Fortran compiler : gnu5.4
  CFLAGS           :  -g -O2 -mtune=native -march=native
  CXXFLAGS         :  -g -O2 -mtune=native -march=native
  FCFLAGS          :  -g -ffree-line-length-none  -fopenmp
  FC_LDFLAGS       : 

 === Optimizations === 
  Debug level        : basic
  Optimization level : standard
  Architecture       : unknown_unknown

 === Multicore === 
  Parallel build : yes
  Parallel I/O   : yes
  openMP support : yes
  GPU support    : no

 === Connectors / Fallbacks === 
  Connectors on : yes
  Fallbacks on  : yes
  DFT flavor    : none
  FFT flavor    : fftw3
  LINALG flavor : atlas
  MATH flavor   : none
  TIMER flavor  : abinit
  TRIO flavor   : netcdf

 === Experimental features === 
  Bindings            : @enable_bindings@
  Exports             : no
  GW double-precision : no

 ++++++++++++++++++++++++++++++++++++++++++++++++++++++++++++++++++++++++++++++


 ++++++++++++++++++++++++++++++++++++++++++++++++++++++++++++++++++++++++++++++
 Default optimizations:
   -O2 -mtune=native -march=native


 Optimizations for 43_ptgroups:
   -O0


 ++++++++++++++++++++++++++++++++++++++++++++++++++++++++++++++++++++++++++++++


 ++++++++++++++++++++++++++++++++++++++++++++++++++++++++++++++++++++++++++++++
 CPP options activated during the build:

                    CC_GNU                   CXX_GNU                    FC_GNU
 
 HAVE_FC_ALLOCATABLE_DT...             HAVE_FC_ASYNC         HAVE_FC_BACKTRACE
 
  HAVE_FC_COMMAND_ARGUMENT      HAVE_FC_COMMAND_LINE        HAVE_FC_CONTIGUOUS
 
           HAVE_FC_CPUTIME              HAVE_FC_EXIT             HAVE_FC_FLUSH
 
             HAVE_FC_GAMMA            HAVE_FC_GETENV   HAVE_FC_IEEE_EXCEPTIONS
 
          HAVE_FC_INT_QUAD             HAVE_FC_IOMSG     HAVE_FC_ISO_C_BINDING
 
  HAVE_FC_ISO_FORTRAN_2008        HAVE_FC_LONG_LINES        HAVE_FC_MOVE_ALLOC
 
           HAVE_FC_PRIVATE         HAVE_FC_PROTECTED         HAVE_FC_STREAM_IO
 
            HAVE_FC_SYSTEM                  HAVE_FFT            HAVE_FFT_FFTW3
 
              HAVE_FFT_MPI           HAVE_FFT_SERIAL          HAVE_FORTRAN2003
 
        HAVE_LIBPAW_ABINIT      HAVE_LIBTETRA_ABINIT               HAVE_LINALG
 
        HAVE_LINALG_SERIAL                  HAVE_MPI                 HAVE_MPI2
 
       HAVE_MPI_IALLREDUCE        HAVE_MPI_IALLTOALL       HAVE_MPI_IALLTOALLV
 
        HAVE_MPI_INTEGER16               HAVE_MPI_IO HAVE_MPI_TYPE_CREATE_S...
 
               HAVE_NETCDF           HAVE_NETCDF_MPI         HAVE_OMP_COLLAPSE
 
               HAVE_OPENMP             HAVE_OS_LINUX         HAVE_TIMER_ABINIT
 
              USE_MACROAVE                                                      
 ++++++++++++++++++++++++++++++++++++++++++++++++++++++++++++++++++++++++++++++

- input  file    -> tbase4_4.in
- output file    -> tbase4_4.out
- root for input  files -> tbase4_4i
- root for output files -> tbase4_4o


--- !WARNING
src_file: m_nctk.F90
src_line: 572
message: |
    netcdf lib does not support MPI-IO and: NetCDF: Parallel operation on file opened for non-parallel access
...

  Asked to delete not existent file: __TMP_FILE__

--- !WARNING
src_file: m_nctk.F90
src_line: 592
message: |
    The netcdf library does not support parallel IO, see message above
    Abinit won't be able to produce files in parallel e.g. when paral_kgb==1 is used.
    Action: install a netcdf4+HDF5 library with MPI-IO support.
...

-instrng: 74 lines of input have been read from file tbase4_4.in


 Please give name of formatted atomic psp file
 iofn2 : for atom type 1, psp file is ../../../../../Psps_for_tests/13al.981214.fhi
  read the values zionpsp=  3.0 , pspcod=   6 , lmax=   2

 inpspheads: deduce mpsang = 3, n1xccc = 0.
 invars1 : treat image number: 1

 symlatt : the Bravais lattice is tP (primitive tetragonal)
  xred   is defined in input file
 ingeo: takes atomic coordinates from input array xred

 symlatt : the Bravais lattice is tP (primitive tetragonal)

--- !COMMENT
src_file: m_symtk.F90
src_line: 838
message: |
    According to the symmetry finder, the unit cell is
    not primitive, with multiplicity= 2.
    This is allowed, as the input variable chkprim is 0.
...

 ingeo: angdeg(1:3)=   90.00000000   90.00000000   90.00000000
 invars2: take the default value of fband=  5.00000000E-01
 chkneu : initialized the occupation numbers for occopt=    4, spin-unpolarized or antiferromagnetic case :
  2.00  2.00  2.00  0.00
npfft, npband, npspinor and npkpt:     1    1    1    2
mpi_setup: mkmem  undefined in the input file.Use default mkmem  = nkpt
 mpi_setup: With nkpt_me=6 and mkmem  = 12, ground state wf handled in core.
 Resetting mkmem  to nkpt_me to save memory space.
mpi_setup: mkqmem undefined in the input file.Use default mkqmem = nkpt
 mpi_setup: With nkpt_me=6 and mkqmem = 12, ground state wf handled in core.
 Resetting mkqmem to nkpt_me to save memory space.
mpi_setup: mk1mem undefined in the input file.Use default mk1mem = nkpt
 mpi_setup: With nkpt_me=6 and mk1mem = 12, ground state wf handled in core.
 Resetting mk1mem to nkpt_me to save memory space.
 For input ecut=  6.000000E+00 best grid ngfft=      12      12      18
       max ecut=  6.307140E+00

 ==== FFT mesh ====
  FFT mesh divisions ........................    12   12   18
  Augmented FFT divisions ...................    13   13   18
  FFT algorithm .............................   312
  FFT cache size ............................    16
 getmpw: optimal value of mpw= 152

 Symmetries : the unit cell is not primitive

 getdim_nloc : deduce lmnmax  =   9, lnmax  =   3,
                      lmnmaxso=   9, lnmaxso=   3.
memory : analysis of memory needs
================================================================================
 Values of the parameters that define the memory need of the present run
     intxc =       0    ionmov =       0      iscf =       7    lmnmax =       3
     lnmax =       3     mgfft =      18  mpssoang =       3    mqgrid =    3001
     natom =       2  nloc_mem =       1    nspden =       1   nspinor =       1
    nsppol =       1      nsym =      32    n1xccc =       0    ntypat =       1
    occopt =       4   xclevel =       1
-    mband =           4        mffmem =           1         mkmem =           6
       mpw =         152          nfft =        2592          nkpt =          12
================================================================================
P This job should need less than                       2.014 Mbytes of memory.
  Rough estimation (10% accuracy) of disk space for files :
_ WF disk file :      0.113 Mbytes ; DEN or POT disk file :      0.022 Mbytes.
================================================================================

 Biggest array : f_fftgr(disk), with      0.3184 MBytes.
 memana : allocated an array of      0.318 Mbytes, for testing purposes.
 memana: allocated       2.014Mbytes, for testing purposes. 
 The job will continue.
--------------------------------------------------------------------------------
------------- Echo of variables that govern the present computation ------------
--------------------------------------------------------------------------------
-
- outvars: echo of selected default values                                      
-   iomode0 =  0 , fftalg0 =312 , wfoptalg0 =  0
-
- outvars: echo of global parameters not present in the input file              
-  max_nthreads =    2
-
 -outvars: echo values of preprocessed input variables --------
 
 These variables are accessible in NetCDF format (tbase4_4o_OUT.nc)

            acell      7.5055909000E+00  7.5055909000E+00  7.5055909000E+00 Bohr
              amu      2.69815390E+01
             ecut      6.00000000E+00 Hartree
-          fftalg         312
              kpt     -1.25000000E-01  0.00000000E+00  1.25000000E-01
                      -3.75000000E-01  0.00000000E+00  1.25000000E-01
                      -2.50000000E-01  1.25000000E-01  1.25000000E-01
                       5.00000000E-01  1.25000000E-01  1.25000000E-01
                      -3.75000000E-01  2.50000000E-01  1.25000000E-01
                       5.00000000E-01  3.75000000E-01  1.25000000E-01
                      -1.25000000E-01  0.00000000E+00  3.75000000E-01
                      -3.75000000E-01  0.00000000E+00  3.75000000E-01
                      -2.50000000E-01  1.25000000E-01  3.75000000E-01
                       5.00000000E-01  1.25000000E-01  3.75000000E-01
                      -3.75000000E-01  2.50000000E-01  3.75000000E-01
                       5.00000000E-01  3.75000000E-01  3.75000000E-01
         kptrlatt        4    4    0     -4    4    0      0    0    4
          kptrlen      3.00223636E+01
P           mkmem           6
            natom           2
            nband           4
            ngfft          12      12      18
             nkpt          12
            nstep          10
             nsym          32
           ntypat           1
              occ      2.000000  2.000000  2.000000  0.000000
                       2.000000  2.000000  2.000000  0.000000
                       2.000000  2.000000  2.000000  0.000000
                       2.000000  2.000000  2.000000  0.000000
                       2.000000  2.000000  2.000000  0.000000
                       2.000000  2.000000  2.000000  0.000000
                       2.000000  2.000000  2.000000  0.000000
                       2.000000  2.000000  2.000000  0.000000
                       2.000000  2.000000  2.000000  0.000000
                       2.000000  2.000000  2.000000  0.000000
                       2.000000  2.000000  2.000000  0.000000
                       2.000000  2.000000  2.000000  0.000000
           occopt           4
            rprim      5.0000000000E-01 -5.0000000000E-01  0.0000000000E+00
                       5.0000000000E-01  5.0000000000E-01  0.0000000000E+00
                       0.0000000000E+00  0.0000000000E+00  1.0000000000E+00
           shiftk      5.00000000E-01  5.00000000E-01  5.00000000E-01
           symrel      1  0  0   0  1  0   0  0  1       1  0  0   0  1  0   0  0  1
                      -1  0  0   0 -1  0   0  0 -1      -1  0  0   0 -1  0   0  0 -1
                      -1  0  0   0  1  0   0  0 -1      -1  0  0   0  1  0   0  0 -1
                       1  0  0   0 -1  0   0  0  1       1  0  0   0 -1  0   0  0  1
                      -1  0  0   0 -1  0   0  0  1      -1  0  0   0 -1  0   0  0  1
                       1  0  0   0  1  0   0  0 -1       1  0  0   0  1  0   0  0 -1
                       1  0  0   0 -1  0   0  0 -1       1  0  0   0 -1  0   0  0 -1
                      -1  0  0   0  1  0   0  0  1      -1  0  0   0  1  0   0  0  1
                       0  1  0   1  0  0   0  0  1       0  1  0   1  0  0   0  0  1
                       0 -1  0  -1  0  0   0  0 -1       0 -1  0  -1  0  0   0  0 -1
                       0 -1  0   1  0  0   0  0 -1       0 -1  0   1  0  0   0  0 -1
                       0  1  0  -1  0  0   0  0  1       0  1  0  -1  0  0   0  0  1
                       0 -1  0  -1  0  0   0  0  1       0 -1  0  -1  0  0   0  0  1
                       0  1  0   1  0  0   0  0 -1       0  1  0   1  0  0   0  0 -1
                       0  1  0  -1  0  0   0  0 -1       0  1  0  -1  0  0   0  0 -1
                       0 -1  0   1  0  0   0  0  1       0 -1  0   1  0  0   0  0  1
            tnons      0.0000000  0.0000000  0.0000000     0.5000000  0.5000000  0.5000000
                       0.0000000  0.0000000  0.0000000     0.5000000  0.5000000  0.5000000
                       0.0000000  0.0000000  0.0000000     0.5000000  0.5000000  0.5000000
                       0.0000000  0.0000000  0.0000000     0.5000000  0.5000000  0.5000000
                       0.0000000  0.0000000  0.0000000     0.5000000  0.5000000  0.5000000
                       0.0000000  0.0000000  0.0000000     0.5000000  0.5000000  0.5000000
                       0.0000000  0.0000000  0.0000000     0.5000000  0.5000000  0.5000000
                       0.0000000  0.0000000  0.0000000     0.5000000  0.5000000  0.5000000
                       0.0000000  0.0000000  0.0000000     0.5000000  0.5000000  0.5000000
                       0.0000000  0.0000000  0.0000000     0.5000000  0.5000000  0.5000000
                       0.0000000  0.0000000  0.0000000     0.5000000  0.5000000  0.5000000
                       0.0000000  0.0000000  0.0000000     0.5000000  0.5000000  0.5000000
                       0.0000000  0.0000000  0.0000000     0.5000000  0.5000000  0.5000000
                       0.0000000  0.0000000  0.0000000     0.5000000  0.5000000  0.5000000
                       0.0000000  0.0000000  0.0000000     0.5000000  0.5000000  0.5000000
                       0.0000000  0.0000000  0.0000000     0.5000000  0.5000000  0.5000000
           toldfe      1.00000000E-06 Hartree
           tsmear      4.00000000E-02 Hartree
            typat      1  1
              wtk        0.06250    0.06250    0.12500    0.06250    0.12500    0.06250
                         0.06250    0.06250    0.12500    0.06250    0.12500    0.06250
           xangst      0.0000000000E+00  0.0000000000E+00  0.0000000000E+00
                       1.9858938206E+00  0.0000000000E+00  1.9858938206E+00
            xcart      0.0000000000E+00  0.0000000000E+00  0.0000000000E+00
                       3.7527954500E+00  0.0000000000E+00  3.7527954500E+00
             xred      0.0000000000E+00  0.0000000000E+00  0.0000000000E+00
                       5.0000000000E-01  5.0000000000E-01  5.0000000000E-01
            znucl       13.00000

================================================================================

 chkinp: Checking input parameters for consistency.
 DATA TYPE INFORMATION: 
 REAL:      Data type name: REAL(DP) 
            Kind value:      8
            Precision:      15
            Smallest nonnegligible quantity relative to 1:  0.22204460E-15
            Smallest positive number:                       0.22250739-307
            Largest representable number:                   0.17976931+309
 INTEGER:   Data type name: INTEGER(default) 
            Kind value: 4
            Bit size:   32
            Largest representable number: 2147483647
 LOGICAL:   Data type name: LOGICAL 
            Kind value: 4
 CHARACTER: Data type name: CHARACTER             Kind value: 1

  ==== OpenMP parallelism is ON ====
- Max_threads:       2
- Num_threads:       2
- Num_procs:         2
- Dynamic:           F
- Nested:            F
 
  ==== Using MPI-2 specifications ==== 
  MPI-IO support is ON
  xmpi_tag_ub ................   2147483647
  xmpi_bsize_ch ..............            1
  xmpi_bsize_int .............            4
  xmpi_bsize_sp ..............            4
  xmpi_bsize_dp ..............            8
  xmpi_bsize_spc .............            8
  xmpi_bsize_dpc .............           16
  xmpio_bsize_frm ............            4
  xmpi_address_kind ..........            8
  xmpi_offset_kind ...........            8
  MPI_WTICK ..................    9.9999999999999995E-007

================================================================================
== DATASET  1 ==================================================================
-   nproc =    2


--- !COMMENT
src_file: m_xgScalapack.F90
src_line: 251
message: |
    xgScalapack in auto mode
...


 getdim_nloc : deduce lmnmax  =   9, lnmax  =   3,
                      lmnmaxso=   9, lnmaxso=   3.
 Exchange-correlation functional for the present dataset will be:
  LDA: new Teter (4/93) with spin-polarized option - ixc=1
 Citation for XC functional:
  S. Goedecker, M. Teter, J. Huetter, PRB 54, 1703 (1996)

 Unit cell volume ucvol=  2.1140958E+02 bohr^3
 Angles (23,13,12)=  9.00000000E+01  9.00000000E+01  9.00000000E+01 degrees

 getcut: wavevector=  0.0000  0.0000  0.0000  ngfft=  12  12  18
         ecut(hartree)=      6.000   => boxcut(ratio)=   2.05055
 kpgio: loop on k-points done in parallel
- pspini: atom type   1  psp file is ../../../../../Psps_for_tests/13al.981214.fhi
- pspatm: opening atomic psp file    ../../../../../Psps_for_tests/13al.981214.fhi
- Aluminum, fhi98PP : Hamann-type, LDA CA PerdewWang, l=2 local
- 13.00000   3.00000    981214                znucl, zion, pspdat
    6    7    2    2       493   0.00000      pspcod,pspxc,lmax,lloc,mmax,r2well

--- !WARNING
src_file: m_pspini.F90
src_line: 1088
message: |
    Pseudopotential file pspxc= 7,
    not equal to input ixc= 1.
    These parameters must agree to get the same xc 
    in ABINIT code as in psp construction.
    Action: check psp design or input file.
    Assume experienced user. Execution will continue.
...

  No XC core correction.
  1.024700          amesh (Hamman grid)
  pspatm : epsatm=    1.36305739
         --- l  ekb(1:nproj) -->
             0    1.768744
             1    0.900554
 pspatm: atomic psp has been read  and splines computed

   1.63566886E+01                                ecore*ucvol(ha*bohr**3)
 ==== Info on pseudopotentials ====
  Norm-conserving pseudopotentials
  Number of pseudopotentials ..    1
  Number of types of atoms   ..    1
  Scalar calculation (no spin-orbit term)
  Nonlocal part applied using Legendre polynomials
  Max number of non-local projectors over l and type   1
  Highest angular momentum +1 .......   3
  Max number of (l,n)   components ..   3
  Max number of (l,m,n) components ..   3

 Info on the Q-grid used for form factors in spline form: 
   Number of q-points for radial functions ffspl ..   3001
   Number of q-points for vlspl ...................   3001
   vloc is computed in Reciprocal Space
   model core charge treated in real-space

  XC functional for type 1 is 7
  Pseudo valence available: no

 wfconv:     4 bands initialized randomly with npw=   141, for ikpt=     1
 wfconv:     4 bands initialized randomly with npw=   150, for ikpt=     2
 wfconv:     4 bands initialized randomly with npw=   144, for ikpt=     3
 wfconv:     4 bands initialized randomly with npw=   152, for ikpt=     4
 wfconv:     4 bands initialized randomly with npw=   152, for ikpt=     5
 wfconv:     4 bands initialized randomly with npw=   152, for ikpt=     6
_setup2: Arith. and geom. avg. npw (full set) are     148.938     148.899
 initro: for itypat=  1, take decay length=      1.2500,
 initro: indeed, coreel=     10.0000, nval=  3 and densty=  0.0000E+00.

================================================================================

 getcut: wavevector=  0.0000  0.0000  0.0000  ngfft=  12  12  18
         ecut(hartree)=      6.000   => boxcut(ratio)=   2.05055

 ITER STEP NUMBER     1
 vtorho : nnsclo_now=2, note that nnsclo,dbl_nnsclo,istep=0 0 1
 newocc: new Fermi energy is       0.291960 , with nelect=      6.000000
  Number of bissection calls =  47
 newocc : computed new occ. numbers for occopt= 4 , spin-unpolarized case.
 2.000 2.000 0.377 0.004
 2.000 2.000 2.048 0.003
 2.000 2.001 2.079 0.001
 2.000 2.000 0.700 0.700
 2.000 2.001 2.079 0.001
 2.000 2.000 0.377 0.377
 2.000 2.000 0.000 0.000
 2.000 2.000 2.001 2.038
 2.000 2.000 0.693 0.004
 2.000 2.000 2.001 2.001
 2.000 2.000 2.048 0.700
 2.001 2.001 2.079 2.079
mkrho: echo density (plane-wave part only)
 Total charge density [el/Bohr^3]
      Maximum=    3.3785E-02  at reduced coord.    0.0000    0.6667    0.8889
      Minimum=    2.5667E-03  at reduced coord.    0.0000    0.0000    0.0000
   Integrated=    6.0000E+00

--- !WARNING
src_file: m_vtorho.F90
src_line: 1651
message: |
    For k-point number 4,
    The minimal occupation factor is  0.700.
    An adequate monitoring of convergence requires it to be  at most 0.01_dp.
    Action: increase slightly the number of bands.
...

 Total charge density [el/Bohr^3]
      Maximum=    3.3785E-02  at reduced coord.    0.0000    0.6667    0.8889
      Minimum=    2.5667E-03  at reduced coord.    0.0000    0.0000    0.0000
   Integrated=    6.0000E+00
  rhotov : is_hybrid_ncpp= F
  rhotov : n3xccc=           0
 ETOT  1  -4.1957747269094    -4.196E+00 5.791E-04 2.964E-01
 scprqt: <Vxc>= -3.4964553E-01 hartree

Simple mixing update:
  residual square of the potential :  0.21214386487119691
 scfcv_core: previous iteration took 00 [s]

 ITER STEP NUMBER     2
 vtorho : nnsclo_now=2, note that nnsclo,dbl_nnsclo,istep=0 0 2
 newocc: new Fermi energy is       0.292125 , with nelect=      6.000000
  Number of bissection calls =  47
 newocc : computed new occ. numbers for occopt= 4 , spin-unpolarized case.
 2.000 2.000 0.375 0.004
 2.000 2.000 2.048 0.004
 2.000 2.001 2.078 0.001
 2.000 2.000 0.700 0.700
 2.000 2.001 2.078 0.001
 2.000 2.000 0.375 0.375
 2.000 2.000 0.000 0.000
 2.000 2.000 2.001 2.039
 2.000 2.000 0.700 0.004
 2.000 2.000 2.001 2.001
 2.000 2.000 2.048 0.700
 2.001 2.001 2.078 2.078
mkrho: echo density (plane-wave part only)
 Total charge density [el/Bohr^3]
      Maximum=    3.3994E-02  at reduced coord.    0.0000    0.6667    0.8889
      Minimum=    2.5377E-03  at reduced coord.    0.0000    0.0000    0.0000
   Integrated=    6.0000E+00

--- !WARNING
src_file: m_vtorho.F90
src_line: 1651
message: |
    For k-point number 4,
    The minimal occupation factor is  0.700.
    An adequate monitoring of convergence requires it to be  at most 0.01_dp.
    Action: increase slightly the number of bands.
...

 Total charge density [el/Bohr^3]
      Maximum=    3.3994E-02  at reduced coord.    0.0000    0.6667    0.8889
      Minimum=    2.5377E-03  at reduced coord.    0.0000    0.0000    0.0000
   Integrated=    6.0000E+00
  rhotov : is_hybrid_ncpp= F
  rhotov : n3xccc=           0
 ETOT  2  -4.1962857396222    -5.110E-04 9.801E-05 7.834E-03
 scprqt: <Vxc>= -3.4963586E-01 hartree

 Pulay update with  1 previous iterations:
 mixing of old trial potential : alpha(m:m-4)=   1.17     -0.173
 scfcv_core: previous iteration took 00 [s]

 ITER STEP NUMBER     3
 vtorho : nnsclo_now=1, note that nnsclo,dbl_nnsclo,istep=0 0 3
 newocc: new Fermi energy is       0.291982 , with nelect=      6.000000
  Number of bissection calls =  48
 newocc : computed new occ. numbers for occopt= 4 , spin-unpolarized case.
 2.000 2.000 0.374 0.004
 2.000 2.000 2.048 0.004
 2.000 2.001 2.077 0.001
 2.000 2.000 0.700 0.700
 2.000 2.001 2.077 0.001
 2.000 2.000 0.374 0.374
 2.000 2.000 0.000 0.000
 2.000 2.000 2.001 2.040
 2.000 2.000 0.700 0.004
 2.000 2.000 2.001 2.001
 2.000 2.000 2.048 0.700
 2.001 2.001 2.077 2.077
mkrho: echo density (plane-wave part only)
 Total charge density [el/Bohr^3]
      Maximum=    3.4036E-02  at reduced coord.    0.0000    0.6667    0.8889
      Minimum=    2.5401E-03  at reduced coord.    0.0000    0.0000    0.0000
   Integrated=    6.0000E+00

--- !WARNING
src_file: m_vtorho.F90
src_line: 1651
message: |
    For k-point number 4,
    The minimal occupation factor is  0.700.
    An adequate monitoring of convergence requires it to be  at most 0.01_dp.
    Action: increase slightly the number of bands.
...

 Total charge density [el/Bohr^3]
      Maximum=    3.4036E-02  at reduced coord.    0.0000    0.6667    0.8889
      Minimum=    2.5401E-03  at reduced coord.    0.0000    0.0000    0.0000
   Integrated=    6.0000E+00
  rhotov : is_hybrid_ncpp= F
  rhotov : n3xccc=           0
 ETOT  3  -4.1962971973799    -1.146E-05 7.133E-06 3.866E-05
 scprqt: <Vxc>= -3.4963295E-01 hartree

 Pulay update with  2 previous iterations:
 mixing of old trial potential : alpha(m:m-4)=   1.23     -0.263      0.359E-01
 scfcv_core: previous iteration took 00 [s]

 ITER STEP NUMBER     4
 vtorho : nnsclo_now=1, note that nnsclo,dbl_nnsclo,istep=0 0 4
 newocc: new Fermi energy is       0.291984 , with nelect=      6.000000
  Number of bissection calls =  48
 newocc : computed new occ. numbers for occopt= 4 , spin-unpolarized case.
 2.000 2.000 0.374 0.004
 2.000 2.000 2.048 0.004
 2.000 2.001 2.077 0.001
 2.000 2.000 0.700 0.700
 2.000 2.001 2.077 0.001
 2.000 2.000 0.374 0.374
 2.000 2.000 0.000 0.000
 2.000 2.000 2.001 2.040
 2.000 2.000 0.700 0.004
 2.000 2.000 2.001 2.001
 2.000 2.000 2.048 0.700
 2.001 2.001 2.077 2.077
mkrho: echo density (plane-wave part only)
 Total charge density [el/Bohr^3]
      Maximum=    3.4039E-02  at reduced coord.    0.0000    0.6667    0.8889
      Minimum=    2.5426E-03  at reduced coord.    0.0000    0.0000    0.0000
   Integrated=    6.0000E+00

--- !WARNING
src_file: m_vtorho.F90
src_line: 1651
message: |
    For k-point number 4,
    The minimal occupation factor is  0.700.
    An adequate monitoring of convergence requires it to be  at most 0.01_dp.
    Action: increase slightly the number of bands.
...

 Total charge density [el/Bohr^3]
      Maximum=    3.4039E-02  at reduced coord.    0.0000    0.6667    0.8889
      Minimum=    2.5426E-03  at reduced coord.    0.0000    0.0000    0.0000
   Integrated=    6.0000E+00
  rhotov : is_hybrid_ncpp= F
  rhotov : n3xccc=           0
 ETOT  4  -4.1962972591830    -6.180E-08 3.997E-06 1.431E-07
 scprqt: <Vxc>= -3.4963275E-01 hartree

 Pulay update with  3 previous iterations:
 mixing of old trial potential : alpha(m:m-4)=   1.16     -0.182      0.311E-01 -0.412E-02
 scfcv_core: previous iteration took 00 [s]

 ITER STEP NUMBER     5
 vtorho : nnsclo_now=1, note that nnsclo,dbl_nnsclo,istep=0 0 5
 newocc: new Fermi energy is       0.291985 , with nelect=      6.000000
  Number of bissection calls =  48
 newocc : computed new occ. numbers for occopt= 4 , spin-unpolarized case.
 2.000 2.000 0.374 0.004
 2.000 2.000 2.048 0.004
 2.000 2.001 2.077 0.001
 2.000 2.000 0.700 0.700
 2.000 2.001 2.077 0.001
 2.000 2.000 0.374 0.374
 2.000 2.000 0.000 0.000
 2.000 2.000 2.001 2.040
 2.000 2.000 0.700 0.004
 2.000 2.000 2.001 2.001
 2.000 2.000 2.048 0.700
 2.001 2.001 2.077 2.077
mkrho: echo density (plane-wave part only)
 Total charge density [el/Bohr^3]
      Maximum=    3.4039E-02  at reduced coord.    0.0000    0.6667    0.8889
      Minimum=    2.5428E-03  at reduced coord.    0.0000    0.0000    0.0000
   Integrated=    6.0000E+00

--- !WARNING
src_file: m_vtorho.F90
src_line: 1651
message: |
    For k-point number 4,
    The minimal occupation factor is  0.700.
    An adequate monitoring of convergence requires it to be  at most 0.01_dp.
    Action: increase slightly the number of bands.
...

 Total charge density [el/Bohr^3]
      Maximum=    3.4039E-02  at reduced coord.    0.0000    0.6667    0.8889
      Minimum=    2.5428E-03  at reduced coord.    0.0000    0.0000    0.0000
   Integrated=    6.0000E+00
  rhotov : is_hybrid_ncpp= F
  rhotov : n3xccc=           0
 ETOT  5  -4.1962972610253    -1.842E-09 7.249E-07 2.838E-10
 scprqt: <Vxc>= -3.4963276E-01 hartree

 At SCF step    5, etot is converged : 
  for the second time, diff in etot=  1.842E-09 < toldfe=  1.000E-06

 Cartesian components of stress tensor (hartree/bohr^3)
  sigma(1 1)=  2.59348023E-05  sigma(3 2)=  0.00000000E+00
  sigma(2 2)=  2.59348023E-05  sigma(3 1)=  0.00000000E+00
  sigma(3 3)=  2.62546186E-05  sigma(2 1)=  0.00000000E+00

 fftdatar_write: About to write data to: tbase4_4o_DEN with iomode IO_MODE_FORTRAN
 IO operation completed. cpu_time:       0.0 [s], walltime:       0.0 [s]
================================================================================

 ----iterations are completed or convergence reached----

 Mean square residual over all n,k,spin=   19.641E-09; max=  72.490E-08
  -0.1250  0.0000  0.1250    1  1.03288E-12 kpt; spin; max resid(k); each band:
  9.67E-14 7.84E-13 1.03E-12 8.84E-13
  -0.3750  0.0000  0.1250    1  2.17843E-07 kpt; spin; max resid(k); each band:
  6.79E-13 7.97E-13 6.97E-13 2.18E-07
  -0.2500  0.1250  0.1250    1  2.05126E-12 kpt; spin; max resid(k); each band:
  6.15E-14 1.09E-12 1.74E-12 2.05E-12
   0.5000  0.1250  0.1250    1  7.51457E-13 kpt; spin; max resid(k); each band:
  7.51E-13 7.51E-13 6.98E-13 6.98E-13
  -0.3750  0.2500  0.1250    1  2.01694E-12 kpt; spin; max resid(k); each band:
  9.37E-14 1.04E-12 1.75E-12 2.02E-12
   0.5000  0.3750  0.1250    1  9.01633E-13 kpt; spin; max resid(k); each band:
  4.68E-13 4.68E-13 9.00E-13 9.02E-13
  -0.1250  0.0000  0.3750    1  7.24901E-07 kpt; spin; max resid(k); each band:
  4.96E-13 5.99E-13 1.08E-12 7.25E-07
  -0.3750  0.0000  0.3750    1  9.37115E-13 kpt; spin; max resid(k); each band:
  8.96E-13 9.31E-13 9.37E-13 8.97E-13
  -0.2500  0.1250  0.3750    1  7.69764E-13 kpt; spin; max resid(k); each band:
  6.65E-13 7.55E-13 6.99E-13 7.70E-13
   0.5000  0.1250  0.3750    1  9.38730E-13 kpt; spin; max resid(k); each band:
  9.30E-13 9.30E-13 9.39E-13 9.39E-13
  -0.3750  0.2500  0.3750    1  7.94141E-13 kpt; spin; max resid(k); each band:
  7.53E-13 7.94E-13 6.99E-13 6.98E-13
   0.5000  0.3750  0.3750    1  7.82690E-13 kpt; spin; max resid(k); each band:
  6.22E-13 6.22E-13 7.83E-13 7.83E-13

 outwf: write wavefunction to file tbase4_4o_WFK, with iomode -1
 outwf with iomode: -1, cpu_time:     0.00[s], walltime:     0.00 [s]
 prteigrs : about to open file tbase4_4o_EIG
 Fermi (or HOMO) energy (hartree) =   0.29198   Average Vxc (hartree)=  -0.34963
 Eigenvalues (hartree) for nkpt=  12  k points:
 kpt#   1, nband=  4, wtk=  0.06250, kpt= -0.1250  0.0000  0.1250 (reduced coord)
  -0.11517    0.13416    0.30478    0.37416
      occupation numbers for kpt#   1
   2.00000    2.00000    0.37399    0.00401
 kpt#   2, nband=  4, wtk=  0.06250, kpt= -0.3750  0.0000  0.1250 (reduced coord)
  -0.03009    0.13548    0.21579    0.37478
      occupation numbers for kpt#   2
   2.00000    2.00000    2.04789    0.00390
 kpt#   3, nband=  4, wtk=  0.12500, kpt= -0.2500  0.1250  0.1250 (reduced coord)
  -0.07242    0.17439    0.25512    0.34593
      occupation numbers for kpt#   3
   2.00000    2.00072    2.07737    0.00106
 kpt#   4, nband=  4, wtk=  0.06250, kpt=  0.5000  0.1250  0.1250 (reduced coord)
   0.05351    0.05351    0.29540    0.29540
      occupation numbers for kpt#   4
   2.00000    2.00000    0.70044    0.70044
 kpt#   5, nband=  4, wtk=  0.12500, kpt= -0.3750  0.2500  0.1250 (reduced coord)
   0.01185    0.17439    0.25512    0.34593
      occupation numbers for kpt#   5
   2.00000    2.00072    2.07737    0.00106
 kpt#   6, nband=  4, wtk=  0.06250, kpt=  0.5000  0.3750  0.1250 (reduced coord)
   0.13416    0.13416    0.30478    0.30478
      occupation numbers for kpt#   6
   2.00000    2.00000    0.37400    0.37400
 kpt#   7, nband=  4, wtk=  0.06250, kpt= -0.1250  0.0000  0.3750 (reduced coord)
  -0.07242    0.01185    0.41184    0.49055
      occupation numbers for kpt#   7
   2.00000    2.00000    0.00015    0.00000
 kpt#   8, nband=  4, wtk=  0.06250, kpt= -0.3750  0.0000  0.3750 (reduced coord)
   0.01192    0.09468    0.17738    0.25786
      occupation numbers for kpt#   8
   2.00000    2.00000    2.00106    2.03986
 kpt#   9, nband=  4, wtk=  0.12500, kpt= -0.2500  0.1250  0.3750 (reduced coord)
  -0.03009    0.05351    0.29540    0.37478
      occupation numbers for kpt#   9
   2.00000    2.00000    0.70044    0.00390
 kpt#  10, nband=  4, wtk=  0.06250, kpt=  0.5000  0.1250  0.3750 (reduced coord)
   0.09468    0.09468    0.17738    0.17738
      occupation numbers for kpt#  10
   2.00000    2.00000    2.00106    2.00106
 kpt#  11, nband=  4, wtk=  0.12500, kpt= -0.3750  0.2500  0.3750 (reduced coord)
   0.05351    0.13548    0.21579    0.29540
      occupation numbers for kpt#  11
   2.00000    2.00000    2.04789    0.70044
 kpt#  12, nband=  4, wtk=  0.06250, kpt=  0.5000  0.3750  0.3750 (reduced coord)
   0.17439    0.17439    0.25512    0.25512
      occupation numbers for kpt#  12
   2.00072    2.00072    2.07737    2.07737
 Total charge density [el/Bohr^3]
      Maximum=    3.4039E-02  at reduced coord.    0.0000    0.6667    0.8889
 Next maximum=    3.4039E-02  at reduced coord.    0.0000    0.3333    0.8889
      Minimum=    2.5428E-03  at reduced coord.    0.0000    0.0000    0.0000
 Next minimum=    2.5428E-03  at reduced coord.    0.5000    0.5000    0.5000
   Integrated=    6.0000E+00

 Cartesian components of stress tensor (hartree/bohr^3)
  sigma(1 1)=  2.59348023E-05  sigma(3 2)=  0.00000000E+00
  sigma(2 2)=  2.59348023E-05  sigma(3 1)=  0.00000000E+00
  sigma(3 3)=  2.62546186E-05  sigma(2 1)=  0.00000000E+00

-Cartesian components of stress tensor (GPa)         [Pressure= -7.6616E-01 GPa]
- sigma(1 1)=  7.63028100E-01  sigma(3 2)=  0.00000000E+00
- sigma(2 2)=  7.63028100E-01  sigma(3 1)=  0.00000000E+00
- sigma(3 3)=  7.72437418E-01  sigma(2 1)=  0.00000000E+00

== END DATASET(S) ==============================================================
================================================================================
  
 -outvars: echo values of variables after computation  --------
 
 These variables are accessible in NetCDF format (tbase4_4o_OUT.nc)

            acell      7.5055909000E+00  7.5055909000E+00  7.5055909000E+00 Bohr
              amu      2.69815390E+01
             ecut      6.00000000E+00 Hartree
           etotal     -4.1962972610E+00
            fcart     -0.0000000000E+00 -0.0000000000E+00 -0.0000000000E+00
                      -0.0000000000E+00 -0.0000000000E+00 -0.0000000000E+00
-          fftalg         312
              kpt     -1.25000000E-01  0.00000000E+00  1.25000000E-01
                      -3.75000000E-01  0.00000000E+00  1.25000000E-01
                      -2.50000000E-01  1.25000000E-01  1.25000000E-01
                       5.00000000E-01  1.25000000E-01  1.25000000E-01
                      -3.75000000E-01  2.50000000E-01  1.25000000E-01
                       5.00000000E-01  3.75000000E-01  1.25000000E-01
                      -1.25000000E-01  0.00000000E+00  3.75000000E-01
                      -3.75000000E-01  0.00000000E+00  3.75000000E-01
                      -2.50000000E-01  1.25000000E-01  3.75000000E-01
                       5.00000000E-01  1.25000000E-01  3.75000000E-01
                      -3.75000000E-01  2.50000000E-01  3.75000000E-01
                       5.00000000E-01  3.75000000E-01  3.75000000E-01
         kptrlatt        4    4    0     -4    4    0      0    0    4
          kptrlen      3.00223636E+01
P           mkmem           6
            natom           2
            nband           4
            ngfft          12      12      18
             nkpt          12
            nstep          10
             nsym          32
           ntypat           1
              occ      2.000000  2.000001  0.373993  0.004015
                       2.000000  2.000002  2.047894  0.003904
                       2.000000  2.000717  2.077372  0.001061
                       2.000000  2.000000  0.700442  0.700442
                       2.000000  2.000717  2.077372  0.001061
                       2.000001  2.000001  0.373997  0.373997
                       2.000000  2.000000  0.000149  0.000000
                       2.000000  2.000000  2.001056  2.039858
                       2.000000  2.000000  0.700440  0.003904
                       2.000000  2.000000  2.001056  2.001056
                       2.000000  2.000002  2.047894  0.700440
                       2.000717  2.000717  2.077372  2.077372
           occopt           4
            rprim      5.0000000000E-01 -5.0000000000E-01  0.0000000000E+00
                       5.0000000000E-01  5.0000000000E-01  0.0000000000E+00
                       0.0000000000E+00  0.0000000000E+00  1.0000000000E+00
           shiftk      5.00000000E-01  5.00000000E-01  5.00000000E-01
           strten      2.5934802343E-05  2.5934802343E-05  2.6254618623E-05
                       0.0000000000E+00  0.0000000000E+00  0.0000000000E+00
           symrel      1  0  0   0  1  0   0  0  1       1  0  0   0  1  0   0  0  1
                      -1  0  0   0 -1  0   0  0 -1      -1  0  0   0 -1  0   0  0 -1
                      -1  0  0   0  1  0   0  0 -1      -1  0  0   0  1  0   0  0 -1
                       1  0  0   0 -1  0   0  0  1       1  0  0   0 -1  0   0  0  1
                      -1  0  0   0 -1  0   0  0  1      -1  0  0   0 -1  0   0  0  1
                       1  0  0   0  1  0   0  0 -1       1  0  0   0  1  0   0  0 -1
                       1  0  0   0 -1  0   0  0 -1       1  0  0   0 -1  0   0  0 -1
                      -1  0  0   0  1  0   0  0  1      -1  0  0   0  1  0   0  0  1
                       0  1  0   1  0  0   0  0  1       0  1  0   1  0  0   0  0  1
                       0 -1  0  -1  0  0   0  0 -1       0 -1  0  -1  0  0   0  0 -1
                       0 -1  0   1  0  0   0  0 -1       0 -1  0   1  0  0   0  0 -1
                       0  1  0  -1  0  0   0  0  1       0  1  0  -1  0  0   0  0  1
                       0 -1  0  -1  0  0   0  0  1       0 -1  0  -1  0  0   0  0  1
                       0  1  0   1  0  0   0  0 -1       0  1  0   1  0  0   0  0 -1
                       0  1  0  -1  0  0   0  0 -1       0  1  0  -1  0  0   0  0 -1
                       0 -1  0   1  0  0   0  0  1       0 -1  0   1  0  0   0  0  1
            tnons      0.0000000  0.0000000  0.0000000     0.5000000  0.5000000  0.5000000
                       0.0000000  0.0000000  0.0000000     0.5000000  0.5000000  0.5000000
                       0.0000000  0.0000000  0.0000000     0.5000000  0.5000000  0.5000000
                       0.0000000  0.0000000  0.0000000     0.5000000  0.5000000  0.5000000
                       0.0000000  0.0000000  0.0000000     0.5000000  0.5000000  0.5000000
                       0.0000000  0.0000000  0.0000000     0.5000000  0.5000000  0.5000000
                       0.0000000  0.0000000  0.0000000     0.5000000  0.5000000  0.5000000
                       0.0000000  0.0000000  0.0000000     0.5000000  0.5000000  0.5000000
                       0.0000000  0.0000000  0.0000000     0.5000000  0.5000000  0.5000000
                       0.0000000  0.0000000  0.0000000     0.5000000  0.5000000  0.5000000
                       0.0000000  0.0000000  0.0000000     0.5000000  0.5000000  0.5000000
                       0.0000000  0.0000000  0.0000000     0.5000000  0.5000000  0.5000000
                       0.0000000  0.0000000  0.0000000     0.5000000  0.5000000  0.5000000
                       0.0000000  0.0000000  0.0000000     0.5000000  0.5000000  0.5000000
                       0.0000000  0.0000000  0.0000000     0.5000000  0.5000000  0.5000000
                       0.0000000  0.0000000  0.0000000     0.5000000  0.5000000  0.5000000
           toldfe      1.00000000E-06 Hartree
           tsmear      4.00000000E-02 Hartree
            typat      1  1
              wtk        0.06250    0.06250    0.12500    0.06250    0.12500    0.06250
                         0.06250    0.06250    0.12500    0.06250    0.12500    0.06250
           xangst      0.0000000000E+00  0.0000000000E+00  0.0000000000E+00
                       1.9858938206E+00  0.0000000000E+00  1.9858938206E+00
            xcart      0.0000000000E+00  0.0000000000E+00  0.0000000000E+00
                       3.7527954500E+00  0.0000000000E+00  3.7527954500E+00
             xred      0.0000000000E+00  0.0000000000E+00  0.0000000000E+00
                       5.0000000000E-01  5.0000000000E-01  5.0000000000E-01
            znucl       13.00000

================================================================================
  

================================================================================

 Suggested references for the acknowledgment of ABINIT usage.

 The users of ABINIT have little formal obligations with respect to the ABINIT group
 (those specified in the GNU General Public License, http://www.gnu.org/copyleft/gpl.txt).
 However, it is common practice in the scientific literature,
 to acknowledge the efforts of people that have made the research possible.
 In this spirit, please find below suggested citations of work written by ABINIT developers,
 corresponding to implementations inside of ABINIT that you have used in the present run.
 Note also that it will be of great value to readers of publications presenting these results,
 to read papers enabling them to understand the theoretical formalism and details
 of the ABINIT implementation.
 For information on why they are suggested, see also https://docs.abinit.org/theory/acknowledgments.
-
- [1] Recent developments in the ABINIT software package.
- Computer Phys. Comm. 205, 106 (2016).
- X.Gonze, F.Jollet, F.Abreu Araujo, D.Adams, B.Amadon, T.Applencourt,
- C.Audouze, J.-M.Beuken, J.Bieder, A.Bokhanchuk, E.Bousquet, F.Bruneval
- D.Caliste, M.Cote, F.Dahm, F.Da Pieve, M.Delaveau, M.Di Gennaro,
- B.Dorado, C.Espejo, G.Geneste, L.Genovese, A.Gerossier, M.Giantomassi,
- Y.Gillet, D.R.Hamann, L.He, G.Jomard, J.Laflamme Janssen, S.Le Roux,
- A.Levitt, A.Lherbier, F.Liu, I.Lukacevic, A.Martin, C.Martins,
- M.J.T.Oliveira, S.Ponce, Y.Pouillon, T.Rangel, G.-M.Rignanese,
- A.H.Romero, B.Rousseau, O.Rubel, A.A.Shukri, M.Stankovski, M.Torrent,
- M.J.Van Setten, B.Van Troeye, M.J.Verstraete, D.Waroquier, J.Wiktor,
- B.Xu, A.Zhou, J.W.Zwanziger.
- Comment : the fourth generic paper describing the ABINIT project.
- Note that a version of this paper, that is not formatted for Computer Phys. Comm. 
- is available at https://www.abinit.org/about/ABINIT16.pdf .
- The licence allows the authors to put it on the Web.
- DOI and bibtex : see https://docs.abinit.org/theory/bibliography/#gonze2016
-
- [2] Ab initio pseudopotentials for electronic structure calculations of poly-atomic systems, 
- using density-functional theory.
- M. Fuchs, M. Scheffler, Comput. Phys. Commun. 119, 67 (1999).
- Comment : Some pseudopotential generated using the FHI code were used.
- DOI and bibtex : see https://docs.abinit.org/theory/bibliography/#fuchs1999
-
- [3] ABINIT : First-principles approach of materials and nanosystem properties.
- Computer Phys. Comm. 180, 2582-2615 (2009).
- X. Gonze, B. Amadon, P.-M. Anglade, J.-M. Beuken, F. Bottin, P. Boulanger, F. Bruneval,
- D. Caliste, R. Caracas, M. Cote, T. Deutsch, L. Genovese, Ph. Ghosez, M. Giantomassi
- S. Goedecker, D.R. Hamann, P. Hermet, F. Jollet, G. Jomard, S. Leroux, M. Mancini, S. Mazevet,
- M.J.T. Oliveira, G. Onida, Y. Pouillon, T. Rangel, G.-M. Rignanese, D. Sangalli, R. Shaltaf,
- M. Torrent, M.J. Verstraete, G. Zerah, J.W. Zwanziger
- Comment : the third generic paper describing the ABINIT project.
- Note that a version of this paper, that is not formatted for Computer Phys. Comm. 
- is available at https://www.abinit.org/about/ABINIT_CPC_v10.pdf .
- The licence allows the authors to put it on the Web.
- DOI and bibtex : see https://docs.abinit.org/theory/bibliography/#gonze2009
-
- [4] A brief introduction to the ABINIT software package.
- Z. Kristallogr. 220, 558-562 (2005).
- X. Gonze, G.-M. Rignanese, M. Verstraete, J.-M. Beuken, Y. Pouillon, R. Caracas, F. Jollet,
- M. Torrent, G. Zerah, M. Mikami, Ph. Ghosez, M. Veithen, J.-Y. Raty, V. Olevano, F. Bruneval,
- L. Reining, R. Godby, G. Onida, D.R. Hamann, and D.C. Allan.
- Comment : the second generic paper describing the ABINIT project. Note that this paper
- should be cited especially if you are using the GW part of ABINIT, as several authors
- of this part are not in the list of authors of the first or third paper.
- The .pdf of the latter paper is available at https://www.abinit.org/about/zfk_0505-06_558-562.pdf.
- Note that it should not redistributed (Copyright by Oldenburg Wissenshaftverlag,
- the licence allows the authors to put it on the Web).
- DOI and bibtex : see https://docs.abinit.org/theory/bibliography/#gonze2005
-
- And optionally:
-
- [5] First-principles computation of material properties : the ABINIT software project. 
- X. Gonze, J.-M. Beuken, R. Caracas, F. Detraux, M. Fuchs, G.-M. Rignanese, L. Sindic,
- M. Verstraete, G. Zerah, F. Jollet, M. Torrent, A. Roy, M. Mikami, Ph. Ghosez, J.-Y. Raty, D.C. Allan.
- Computational Materials Science 25, 478-492 (2002). http://dx.doi.org/10.1016/S0927-0256(02)00325-7
- Comment : the original paper describing the ABINIT project.
- DOI and bibtex : see https://docs.abinit.org/theory/bibliography/#gonze2002
 Proc.   0 individual time (sec): cpu=          1.0  wall=          0.8

 Calculation completed.
.Delivered   0 WARNINGs and   0 COMMENTs to log file.

--- !FinalSummary
program: abinit
version: 8.10.3
start_datetime: Fri Oct 18 16:46:46 2019
end_datetime: Fri Oct 18 16:46:47 2019
overall_cpu_time:           2.0
overall_wall_time:           1.6
exit_requested_by_user: no 
timelimit: 0
pseudos: 
    Al  : 45177dc68580e70ffd690f1e65e9b174
usepaw: 0
mpi_procs: 2
omp_threads: 2
num_warnings: 0
num_comments: 0
...
