
.Version 8.10.3 of ABINIT 
.(MPI version, prepared for a x86_64_linux_gnu5.4 computer) 

.Copyright (C) 1998-2018 ABINIT group . 
 ABINIT comes with ABSOLUTELY NO WARRANTY.
 It is free software, and you are welcome to redistribute it
 under certain conditions (GNU General Public License,
 see ~abinit/COPYING or http://www.gnu.org/copyleft/gpl.txt).

 ABINIT is a project of the Universite Catholique de Louvain,
 Corning Inc. and other collaborators, see ~abinit/doc/developers/contributors.txt .
 Please read https://docs.abinit.org/theory/acknowledgments for suggested
 acknowledgments of the ABINIT effort.
 For more information, see https://www.abinit.org .

.Starting date : Thu 24 Oct 2019.
- ( at 15h58 )
  
- input  file    -> tbase4_6.in
- output file    -> tbase4_6.out
- root for input  files -> tbase4_6i
- root for output files -> tbase4_6o


 DATASET    1 : space group Am m 2 (# 38); Bravais oC (1-face-center ortho.)
================================================================================
 Values of the parameters that define the memory need for DATASET  1.
     intxc =       0    ionmov =       2      iscf =       7    lmnmax =       3
     lnmax =       3     mgfft =      45  mpssoang =       3    mqgrid =    3001
     natom =       3  nloc_mem =       1    nspden =       1   nspinor =       1
    nsppol =       1      nsym =       4    n1xccc =       0    ntypat =       1
    occopt =       4   xclevel =       1
-    mband =           7        mffmem =           1         mkmem =           8
       mpw =         378          nfft =        6480          nkpt =           8
================================================================================
P This job should need less than                       3.430 Mbytes of memory.
  Rough estimation (10% accuracy) of disk space for files :
_ WF disk file :      0.325 Mbytes ; DEN or POT disk file :      0.051 Mbytes.
================================================================================


 DATASET    2 : space group Am m 2 (# 38); Bravais oC (1-face-center ortho.)
================================================================================
 Values of the parameters that define the memory need for DATASET  2.
     intxc =       0    ionmov =       2      iscf =       7    lmnmax =       3
     lnmax =       3     mgfft =      50  mpssoang =       3    mqgrid =    3001
     natom =       3  nloc_mem =       1    nspden =       1   nspinor =       1
    nsppol =       1      nsym =       4    n1xccc =       0    ntypat =       1
    occopt =       4   xclevel =       1
-    mband =           7        mffmem =           1         mkmem =           8
       mpw =         452          nfft =        7200          nkpt =           8
================================================================================
P This job should need less than                       3.713 Mbytes of memory.
  Rough estimation (10% accuracy) of disk space for files :
_ WF disk file :      0.388 Mbytes ; DEN or POT disk file :      0.057 Mbytes.
================================================================================

--------------------------------------------------------------------------------
------------- Echo of variables that govern the present computation ------------
--------------------------------------------------------------------------------
-
- outvars: echo of selected default values                                      
-   iomode0 =  0 , fftalg0 =312 , wfoptalg0 =  0
-
- outvars: echo of global parameters not present in the input file              
-  max_nthreads =    1
-
 -outvars: echo values of preprocessed input variables --------
            acell      7.5055909000E+00  7.5055909000E+00  7.5055909000E+00 Bohr
              amu      2.69815390E+01
             ecut      6.00000000E+00 Hartree
-          fftalg         312
           ionmov           2
           jdtset        1    2
              kpt     -1.25000000E-01  0.00000000E+00  0.00000000E+00
                      -3.75000000E-01  0.00000000E+00  0.00000000E+00
                      -2.50000000E-01  1.25000000E-01  0.00000000E+00
                       5.00000000E-01  1.25000000E-01  0.00000000E+00
                      -3.75000000E-01  2.50000000E-01  0.00000000E+00
                       2.50000000E-01  1.25000000E-01  0.00000000E+00
                       3.75000000E-01  2.50000000E-01  0.00000000E+00
                       5.00000000E-01  3.75000000E-01  0.00000000E+00
         kptrlatt        4    4    0     -4    4    0      0    0    1
          kptrlen      3.00223636E+01
P           mkmem           8
            natom           3
            nband           7
           ndtset           2
            ngfft1         12      12      45
            ngfft2         12      12      50
             nkpt           8
            nstep          10
             nsym           4
            ntime          10
           ntypat           1
              occ      2.000000  2.000000  2.000000  2.000000  1.000000  0.000000
                       0.000000
                       2.000000  2.000000  2.000000  2.000000  1.000000  0.000000
                       0.000000
                       2.000000  2.000000  2.000000  2.000000  1.000000  0.000000
                       0.000000
                       2.000000  2.000000  2.000000  2.000000  1.000000  0.000000
                       0.000000
                       2.000000  2.000000  2.000000  2.000000  1.000000  0.000000
                       0.000000
                       2.000000  2.000000  2.000000  2.000000  1.000000  0.000000
                       0.000000
                       2.000000  2.000000  2.000000  2.000000  1.000000  0.000000
                       0.000000
                       2.000000  2.000000  2.000000  2.000000  1.000000  0.000000
                       0.000000
           occopt           4
        optforces           1
            rprim1     5.0000000000E-01 -5.0000000000E-01  0.0000000000E+00
                       5.0000000000E-01  5.0000000000E-01  0.0000000000E+00
                       0.0000000000E+00  0.0000000000E+00  2.5000000000E+00
            rprim2     5.0000000000E-01 -5.0000000000E-01  0.0000000000E+00
                       5.0000000000E-01  5.0000000000E-01  0.0000000000E+00
                       0.0000000000E+00  0.0000000000E+00  3.0000000000E+00
           shiftk      5.00000000E-01  5.00000000E-01  0.00000000E+00
          spgroup          38
           symrel      1  0  0   0  1  0   0  0  1       1  0  0   0  1  0   0  0 -1
                       0 -1  0  -1  0  0   0  0 -1       0 -1  0  -1  0  0   0  0  1
            tnons1     0.0000000  0.0000000  0.0000000     0.0000000  0.0000000  0.4000000
                       0.0000000  0.0000000  0.4000000     0.0000000  0.0000000  0.0000000
            tnons2     0.0000000  0.0000000  0.0000000     0.0000000  0.0000000  0.3333333
                       0.0000000  0.0000000  0.3333333     0.0000000  0.0000000  0.0000000
           toldff      5.00000000E-05
           tolmxf      5.00000000E-04
           tsmear      4.00000000E-02 Hartree
            typat      1  1  1
              wtk        0.12500    0.12500    0.12500    0.12500    0.12500    0.12500
                         0.12500    0.12500
           xangst      0.0000000000E+00  0.0000000000E+00  0.0000000000E+00
                       0.0000000000E+00  1.9858937942E+00  1.9858937942E+00
                       0.0000000000E+00  0.0000000000E+00  3.9717876413E+00
            xcart      0.0000000000E+00  0.0000000000E+00  0.0000000000E+00
                       0.0000000000E+00  3.7527954000E+00  3.7527954000E+00
                       0.0000000000E+00  0.0000000000E+00  7.5055909000E+00
             xred1     0.0000000000E+00  0.0000000000E+00  0.0000000000E+00
                      -4.9999999334E-01  4.9999999334E-01  1.9999999734E-01
                       0.0000000000E+00  0.0000000000E+00  4.0000000000E-01
             xred2     0.0000000000E+00  0.0000000000E+00  0.0000000000E+00
                      -4.9999999334E-01  4.9999999334E-01  1.6666666445E-01
                       0.0000000000E+00  0.0000000000E+00  3.3333333333E-01
            znucl       13.00000

================================================================================

 chkinp: Checking input parameters for consistency, jdtset=   1.

 chkinp: WARNING -
   Chksymbreak=1 . Found potentially symmetry-breaking value of tnons, 
   which is neither a rational fraction in 1/8th nor in 1/12th :
   for the symmetry number    2
   symrel is   1  0  0  0  1  0  0  0 -1
   tnons is     0.000000E+00    0.000000E+00    4.000000E-01
   Please, read the description of the input variable chksymbreak,
   then, if you feel confident, you might switch it to zero, or consult with the forum.

 chkinp: WARNING -
   Chksymbreak=1 . Found potentially symmetry-breaking value of tnons, 
   which is neither a rational fraction in 1/8th nor in 1/12th :
   for the symmetry number    3
   symrel is   0 -1  0 -1  0  0  0  0 -1
   tnons is     0.000000E+00    0.000000E+00    4.000000E-01
   Please, read the description of the input variable chksymbreak,
   then, if you feel confident, you might switch it to zero, or consult with the forum.

 chkinp: Checking input parameters for consistency, jdtset=   2.

================================================================================
== DATASET  1 ==================================================================
-   nproc =    1

 Exchange-correlation functional for the present dataset will be:
  LDA: new Teter (4/93) with spin-polarized option - ixc=1
 Citation for XC functional:
  S. Goedecker, M. Teter, J. Huetter, PRB 54, 1703 (1996)

 Real(R)+Recip(G) space primitive vectors, cartesian coordinates (Bohr,Bohr^-1):
 R(1)=  3.7527955 -3.7527954  0.0000000  G(1)=  0.1332340 -0.1332340  0.0000000
 R(2)=  3.7527955  3.7527955  0.0000000  G(2)=  0.1332340  0.1332340  0.0000000
 R(3)=  0.0000000  0.0000000 18.7639773  G(3)=  0.0000000  0.0000000  0.0532936
 Unit cell volume ucvol=  5.2852396E+02 bohr^3
 Angles (23,13,12)=  9.00000000E+01  9.00000000E+01  9.00000000E+01 degrees

 getcut: wavevector=  0.0000  0.0000  0.0000  ngfft=  12  12  45
         ecut(hartree)=      6.000   => boxcut(ratio)=   2.05055

--- Pseudopotential description ------------------------------------------------
- pspini: atom type   1  psp file is ../../../../../Psps_for_tests/13al.981214.fhi
- pspatm: opening atomic psp file    ../../../../../Psps_for_tests/13al.981214.fhi
- Aluminum, fhi98PP : Hamann-type, LDA CA PerdewWang, l=2 local
- 13.00000   3.00000    981214                znucl, zion, pspdat
    6    7    2    2       493   0.00000      pspcod,pspxc,lmax,lloc,mmax,r2well
  No XC core correction.
  1.024700          amesh (Hamman grid)
  pspatm : epsatm=    1.36305739
         --- l  ekb(1:nproj) -->
             0    1.768744
             1    0.900554
 pspatm: atomic psp has been read  and splines computed

   3.68025494E+01                                ecore*ucvol(ha*bohr**3)
--------------------------------------------------------------------------------

_setup2: Arith. and geom. avg. npw (full set) are     368.000     367.927

================================================================================

=== [ionmov= 2] Broyden-Fletcher-Goldfard-Shanno method (forces)            
================================================================================

--- Iteration: ( 1/10) Internal Cycle: (1/1)
--------------------------------------------------------------------------------

---SELF-CONSISTENT-FIELD CONVERGENCE--------------------------------------------

     iter   Etot(hartree)      deltaE(h)  residm     vres2    diffor    maxfor
 ETOT  1  -6.1840771996829    -6.184E+00 3.666E-03 1.848E+02 9.162E-03 9.162E-03
 ETOT  2  -6.2521961425000    -6.812E-02 1.034E-04 4.169E+00 1.332E-02 4.156E-03
 ETOT  3  -6.2525248637826    -3.287E-04 2.997E-05 5.728E+00 6.386E-04 3.517E-03
 ETOT  4  -6.2536794891992    -1.155E-03 1.690E-05 1.224E+00 4.921E-04 4.009E-03
 ETOT  5  -6.2539517326528    -2.722E-04 1.191E-05 5.142E-03 2.500E-04 4.259E-03
 ETOT  6  -6.2539524307562    -6.981E-07 1.434E-07 2.026E-05 4.943E-05 4.309E-03
 ETOT  7  -6.2539524360010    -5.245E-09 2.220E-09 7.051E-07 9.807E-07 4.310E-03

 At SCF step    7, forces are converged : 
  for the second time, max diff in force=  9.807E-07 < toldff=  5.000E-05

 Cartesian components of stress tensor (hartree/bohr^3)
  sigma(1 1)=  1.30994876E-04  sigma(3 2)=  0.00000000E+00
  sigma(2 2)=  1.30995517E-04  sigma(3 1)=  0.00000000E+00
  sigma(3 3)= -5.46606740E-05  sigma(2 1)=  0.00000000E+00

 Integrated electronic density in atomic spheres:
 ------------------------------------------------
 Atom  Sphere_radius  Integrated_density
    1        2.00000          0.87350873
    2        2.00000          0.90551881
    3        2.00000          0.87350873

---OUTPUT-----------------------------------------------------------------------

 Cartesian coordinates (xcart) [bohr]
  0.00000000000000E+00  0.00000000000000E+00  0.00000000000000E+00
  0.00000000000000E+00  3.75279540000000E+00  3.75279545000000E+00
  0.00000000000000E+00  0.00000000000000E+00  7.50559090000000E+00
 Reduced coordinates (xred)
  0.00000000000000E+00  0.00000000000000E+00  0.00000000000000E+00
 -4.99999993338299E-01  4.99999993338299E-01  2.00000000000000E-01
  0.00000000000000E+00  0.00000000000000E+00  4.00000000000000E-01
 Cartesian forces (fcart) [Ha/bohr]; max,rms= 4.30962E-03 2.03158E-03 (free atoms)
 -0.00000000000000E+00 -3.15931298544039E-08 -4.30962484491285E-03
 -0.00000000000000E+00  6.31862597088079E-08 -0.00000000000000E+00
 -0.00000000000000E+00 -3.15931298544039E-08  4.30962484491285E-03
 Reduced forces (fred)
 -1.18562553968866E-07  1.18562553968866E-07  8.08657025459795E-02
  2.37125107937733E-07 -2.37125107937733E-07 -0.00000000000000E+00
 -1.18562553968866E-07  1.18562553968866E-07 -8.08657025459795E-02
 Total energy (etotal) [Ha]= -6.25395243600102E+00

--- Iteration: ( 2/10) Internal Cycle: (1/1)
--------------------------------------------------------------------------------

---SELF-CONSISTENT-FIELD CONVERGENCE--------------------------------------------

     iter   Etot(hartree)      deltaE(h)  residm     vres2    diffor    maxfor
 ETOT  1  -6.2539884607739    -6.254E+00 4.470E-10 1.177E-03 1.081E-04 4.202E-03
 ETOT  2  -6.2539890529023    -5.921E-07 2.175E-11 1.543E-04 1.096E-05 4.191E-03
 ETOT  3  -6.2539890984069    -4.550E-08 2.509E-10 1.507E-05 6.385E-06 4.197E-03

 At SCF step    3, forces are converged : 
  for the second time, max diff in force=  6.385E-06 < toldff=  5.000E-05

 Cartesian components of stress tensor (hartree/bohr^3)
  sigma(1 1)=  1.32137784E-04  sigma(3 2)=  0.00000000E+00
  sigma(2 2)=  1.32137787E-04  sigma(3 1)=  0.00000000E+00
  sigma(3 3)= -5.34553228E-05  sigma(2 1)=  0.00000000E+00

 Integrated electronic density in atomic spheres:
 ------------------------------------------------
 Atom  Sphere_radius  Integrated_density
    1        2.00000          0.87359468
    2        2.00000          0.90494868
    3        2.00000          0.87359468

---OUTPUT-----------------------------------------------------------------------

 Cartesian coordinates (xcart) [bohr]
  0.00000000000000E+00 -3.15931298544039E-08 -4.30962484491285E-03
  0.00000000000000E+00  3.75279546318626E+00  3.75279545000000E+00
  0.00000000000000E+00 -3.15931298544039E-08  7.50990052484491E+00
 Reduced coordinates (xred)
  4.20927949249192E-09 -4.20927949249192E-09 -2.29675446068496E-04
 -5.00000001756858E-01  5.00000001756858E-01  2.00000000000000E-01
  4.20927949249192E-09 -4.20927949249192E-09  4.00229675446069E-01
 Cartesian forces (fcart) [Ha/bohr]; max,rms= 4.19693E-03 1.97845E-03 (free atoms)
  3.44658588563762E-26  6.84565965363506E-10 -4.19692804159857E-03
 -6.89317177127523E-26 -1.36913193072701E-09 -0.00000000000000E+00
  3.44658588563762E-26  6.84565965363506E-10  4.19692804159857E-03
 Reduced forces (fred)
  2.56903604004102E-09 -2.56903604004102E-09  7.87510622924426E-02
 -5.13807208008204E-09  5.13807208008204E-09  0.00000000000000E+00
  2.56903604004102E-09 -2.56903604004102E-09 -7.87510622924426E-02
 Total energy (etotal) [Ha]= -6.25398909840690E+00

 Difference of energy with previous step (new-old):
           Absolute (Ha)=-3.66624E-05
           Relative     =-5.86226E-06

--- Iteration: ( 3/10) Internal Cycle: (1/1)
--------------------------------------------------------------------------------

---SELF-CONSISTENT-FIELD CONVERGENCE--------------------------------------------

     iter   Etot(hartree)      deltaE(h)  residm     vres2    diffor    maxfor
 ETOT  1  -6.2541348637488    -6.254E+00 5.989E-07 1.135E+00 4.073E-03 1.236E-04
 ETOT  2  -6.2546670194917    -5.322E-04 7.594E-08 9.890E-02 7.782E-06 1.159E-04
 ETOT  3  -6.2546955661499    -2.855E-05 1.761E-07 1.013E-02 1.304E-04 2.462E-04
 ETOT  4  -6.2546956135506    -4.740E-08 7.379E-09 8.296E-03 1.241E-05 2.586E-04
 ETOT  5  -6.2546971881293    -1.575E-06 1.730E-08 1.401E-03 1.339E-05 2.720E-04

 At SCF step    5, forces are converged : 
  for the second time, max diff in force=  1.339E-05 < toldff=  5.000E-05

 Cartesian components of stress tensor (hartree/bohr^3)
  sigma(1 1)=  1.70303840E-04  sigma(3 2)=  0.00000000E+00
  sigma(2 2)=  1.70303840E-04  sigma(3 1)=  0.00000000E+00
  sigma(3 3)= -3.70231532E-06  sigma(2 1)=  0.00000000E+00

 Integrated electronic density in atomic spheres:
 ------------------------------------------------
 Atom  Sphere_radius  Integrated_density
    1        2.00000          0.91466525
    2        2.00000          0.88507106
    3        2.00000          0.91466525

---OUTPUT-----------------------------------------------------------------------

 Cartesian coordinates (xcart) [bohr]
  0.00000000000000E+00 -5.41473299208254E-09 -1.64803843233822E-01
  0.00000000000000E+00  3.75279541082946E+00  3.75279545000000E+00
  0.00000000000000E+00 -5.41473299208254E-09  7.67039474323383E+00
 Reduced coordinates (xred)
  7.21426609073849E-10 -7.21426609073849E-10 -8.78299099588931E-03
 -4.99999994781152E-01  4.99999994781152E-01  2.00000000000000E-01
  7.21426609073849E-10 -7.21426609073849E-10  4.08782990995890E-01
 Cartesian forces (fcart) [Ha/bohr]; max,rms= 2.72041E-04 1.28241E-04 (free atoms)
 -0.00000000000000E+00 -2.86531034347439E-10 -2.72041110124066E-04
 -0.00000000000000E+00  5.73062068694877E-10 -0.00000000000000E+00
 -0.00000000000000E+00 -2.86531034347439E-10  2.72041110124066E-04
 Reduced forces (fred)
 -1.07529236198286E-09  1.07529236198286E-09  5.10457320143272E-03
  2.15058472396572E-09 -2.15058472396572E-09 -0.00000000000000E+00
 -1.07529236198286E-09  1.07529236198286E-09 -5.10457320143272E-03
 Total energy (etotal) [Ha]= -6.25469718812927E+00

 Difference of energy with previous step (new-old):
           Absolute (Ha)=-7.08090E-04
           Relative     =-1.13216E-04

 At Broyd/MD step   3, gradients are converged : 
  max grad (force/stress) = 2.7204E-04 < tolmxf= 5.0000E-04 ha/bohr (free atoms)

================================================================================

 ----iterations are completed or convergence reached----

 Mean square residual over all n,k,spin=   21.237E-10; max=  17.296E-09
 reduced coordinates (array xred) for    3 atoms
       0.000000000721     -0.000000000721     -0.008782990996
      -0.499999994781      0.499999994781      0.200000000000
       0.000000000721     -0.000000000721      0.408782990996
 rms dE/dt=  2.4063E-03; max dE/dt=  5.1046E-03; dE/dt below (all hartree)
    1      -0.000000001075      0.000000001075      0.005104573201
    2       0.000000002151     -0.000000002151      0.000000000000
    3      -0.000000001075      0.000000001075     -0.005104573201

 cartesian coordinates (angstrom) at end:
    1      0.00000000000000    -0.00000000286535    -0.08721043772738
    2      0.00000000000000     1.98589379991210     1.98589382064025
    3      0.00000000000000    -0.00000000286535     4.05899807900789

 cartesian forces (hartree/bohr) at end:
    1     -0.00000000000000    -0.00000000028653    -0.00027204111012
    2     -0.00000000000000     0.00000000057306    -0.00000000000000
    3     -0.00000000000000    -0.00000000028653     0.00027204111012
 frms,max,avg= 1.2824141E-04 2.7204111E-04   0.000E+00  0.000E+00  0.000E+00 h/b

 cartesian forces (eV/Angstrom) at end:
    1     -0.00000000000000    -0.00000001473402    -0.01398891515568
    2     -0.00000000000000     0.00000002946803    -0.00000000000000
    3     -0.00000000000000    -0.00000001473402     0.01398891515568
 frms,max,avg= 6.5944378E-03 1.3988915E-02   0.000E+00  0.000E+00  0.000E+00 e/A
 length scales=  7.505590900000  7.505590900000  7.505590900000 bohr
              =  3.971787641281  3.971787641281  3.971787641281 angstroms
 prteigrs : about to open file tbase4_6o_DS1_EIG
 Fermi (or HOMO) energy (hartree) =   0.11270   Average Vxc (hartree)=  -0.27119
 Eigenvalues (hartree) for nkpt=   8  k points:
 kpt#   1, nband=  7, wtk=  0.12500, kpt= -0.1250  0.0000  0.0000 (reduced coord)
  -0.25715   -0.17611   -0.05905    0.05823    0.17192    0.23020    0.30432
      occupation numbers for kpt#   1
   2.00000    2.00000    2.00000    2.13356    0.00305    0.00020    0.00000
 prteigrs : prtvol=0 or 1, do not print more k-points.


--------------------------------------------------------------------------------
 Components of total free energy (in Hartree) :

    Kinetic energy  =  2.39357497132342E+00
    Hartree energy  =  3.35918138442020E+00
    XC energy       = -2.30555608363591E+00
    Ewald energy    = -3.39227297979185E+00
    PspCore energy  =  6.96326982763048E-02
    Loc. psp. energy= -7.74832342107359E+00
    NL   psp  energy=  1.37050906453492E+00
    >>>>> Internal E= -6.25325436594652E+00

    -kT*entropy     = -1.44282218275203E-03
    >>>>>>>>> Etotal= -6.25469718812927E+00

 Other information on the energy :
    Total energy(eV)= -1.70198966114248E+02 ; Band energy (Ha)=  -2.7132847775E-01
--------------------------------------------------------------------------------
 rms coord change=  4.1403E-03   atom, delta coord (reduced):
     1        0.000000000721     -0.000000000721     -0.008782990996
     2       -0.000000001443      0.000000001443      0.000000002665
     3        0.000000000721     -0.000000000721      0.008782990996

 Cartesian components of stress tensor (hartree/bohr^3)
  sigma(1 1)=  1.70303840E-04  sigma(3 2)=  0.00000000E+00
  sigma(2 2)=  1.70303840E-04  sigma(3 1)=  0.00000000E+00
  sigma(3 3)= -3.70231532E-06  sigma(2 1)=  0.00000000E+00

-Cartesian components of stress tensor (GPa)         [Pressure= -3.3040E+00 GPa]
- sigma(1 1)=  5.01051111E+00  sigma(3 2)=  0.00000000E+00
- sigma(2 2)=  5.01051112E+00  sigma(3 1)=  0.00000000E+00
- sigma(3 3)= -1.08925859E-01  sigma(2 1)=  0.00000000E+00

================================================================================
== DATASET  2 ==================================================================
-   nproc =    1

 Exchange-correlation functional for the present dataset will be:
  LDA: new Teter (4/93) with spin-polarized option - ixc=1
 Citation for XC functional:
  S. Goedecker, M. Teter, J. Huetter, PRB 54, 1703 (1996)

 Real(R)+Recip(G) space primitive vectors, cartesian coordinates (Bohr,Bohr^-1):
 R(1)=  3.7527955 -3.7527954  0.0000000  G(1)=  0.1332340 -0.1332340  0.0000000
 R(2)=  3.7527955  3.7527955  0.0000000  G(2)=  0.1332340  0.1332340  0.0000000
 R(3)=  0.0000000  0.0000000 22.5167727  G(3)=  0.0000000  0.0000000  0.0444113
 Unit cell volume ucvol=  6.3422875E+02 bohr^3
 Angles (23,13,12)=  9.00000000E+01  9.00000000E+01  9.00000000E+01 degrees

 getcut: wavevector=  0.0000  0.0000  0.0000  ngfft=  12  12  50
         ecut(hartree)=      6.000   => boxcut(ratio)=   2.01383
--------------------------------------------------------------------------------

_setup2: Arith. and geom. avg. npw (full set) are     444.250     444.191

================================================================================

=== [ionmov= 2] Broyden-Fletcher-Goldfard-Shanno method (forces)            
================================================================================

--- Iteration: ( 1/10) Internal Cycle: (1/1)
--------------------------------------------------------------------------------

---SELF-CONSISTENT-FIELD CONVERGENCE--------------------------------------------

     iter   Etot(hartree)      deltaE(h)  residm     vres2    diffor    maxfor
 ETOT  1  -6.1876696115762    -6.188E+00 5.886E-03 2.081E+02 8.045E-03 8.045E-03
 ETOT  2  -6.2528808793405    -6.521E-02 2.294E-04 9.678E+00 1.268E-02 4.631E-03
 ETOT  3  -6.2528817789212    -8.996E-07 3.402E-05 1.202E+01 6.210E-04 4.010E-03
 ETOT  4  -6.2541035131952    -1.222E-03 1.455E-05 5.220E+00 4.635E-04 4.473E-03
 ETOT  5  -6.2547551968296    -6.517E-04 2.442E-05 5.110E-01 4.255E-04 4.899E-03
 ETOT  6  -6.2547987227488    -4.353E-05 4.773E-06 1.118E-02 2.386E-04 5.137E-03
 ETOT  7  -6.2547991128140    -3.901E-07 4.587E-07 2.397E-05 2.091E-05 5.158E-03
 ETOT  8  -6.2547991203074    -7.493E-09 1.478E-08 5.529E-07 1.101E-06 5.157E-03

 At SCF step    8, forces are converged : 
  for the second time, max diff in force=  1.101E-06 < toldff=  5.000E-05

 Cartesian components of stress tensor (hartree/bohr^3)
  sigma(1 1)=  1.16687849E-04  sigma(3 2)=  0.00000000E+00
  sigma(2 2)=  1.16688206E-04  sigma(3 1)=  0.00000000E+00
  sigma(3 3)= -5.23793994E-05  sigma(2 1)=  0.00000000E+00

 Integrated electronic density in atomic spheres:
 ------------------------------------------------
 Atom  Sphere_radius  Integrated_density
    1        2.00000          0.88967913
    2        2.00000          0.93492649
    3        2.00000          0.90515565

---OUTPUT-----------------------------------------------------------------------

 Cartesian coordinates (xcart) [bohr]
  0.00000000000000E+00  0.00000000000000E+00  0.00000000000000E+00
  0.00000000000000E+00  3.75279540000000E+00  3.75279545000000E+00
  0.00000000000000E+00  0.00000000000000E+00  7.50559090000000E+00
 Reduced coordinates (xred)
  0.00000000000000E+00  0.00000000000000E+00  0.00000000000000E+00
 -4.99999993338299E-01  4.99999993338299E-01  1.66666666666667E-01
  0.00000000000000E+00  0.00000000000000E+00  3.33333333333333E-01
 Cartesian forces (fcart) [Ha/bohr]; max,rms= 5.15730E-03 2.43117E-03 (free atoms)
 -0.00000000000000E+00 -4.41104292100573E-09 -5.15729993789860E-03
 -0.00000000000000E+00  8.82208584201146E-09 -2.89120579329468E-19
 -0.00000000000000E+00 -4.41104292100573E-09  5.15729993789860E-03
 Reduced forces (fred)
 -1.65537418037050E-08  1.65537418037050E-08  1.16125750447387E-01
  3.31074836074100E-08 -3.31074836074100E-08  6.51006236765394E-18
 -1.65537418037050E-08  1.65537418037050E-08 -1.16125750447387E-01
 Total energy (etotal) [Ha]= -6.25479912030737E+00

--- Iteration: ( 2/10) Internal Cycle: (1/1)
--------------------------------------------------------------------------------

---SELF-CONSISTENT-FIELD CONVERGENCE--------------------------------------------

     iter   Etot(hartree)      deltaE(h)  residm     vres2    diffor    maxfor
 ETOT  1  -6.2548505345441    -6.255E+00 1.363E-08 1.996E-03 1.237E-04 5.034E-03
 ETOT  2  -6.2548515661884    -1.032E-06 1.232E-10 3.170E-04 1.655E-05 5.017E-03
 ETOT  3  -6.2548516401006    -7.391E-08 3.886E-10 5.205E-05 8.130E-06 5.025E-03

 At SCF step    3, forces are converged : 
  for the second time, max diff in force=  8.130E-06 < toldff=  5.000E-05

 Cartesian components of stress tensor (hartree/bohr^3)
  sigma(1 1)=  1.17854777E-04  sigma(3 2)=  0.00000000E+00
  sigma(2 2)=  1.17854781E-04  sigma(3 1)=  0.00000000E+00
  sigma(3 3)= -5.11622674E-05  sigma(2 1)=  0.00000000E+00

 Integrated electronic density in atomic spheres:
 ------------------------------------------------
 Atom  Sphere_radius  Integrated_density
    1        2.00000          0.88978863
    2        2.00000          0.93419836
    3        2.00000          0.92100500

---OUTPUT-----------------------------------------------------------------------

 Cartesian coordinates (xcart) [bohr]
  0.00000000000000E+00 -4.41104292100573E-09 -5.15729993789860E-03
  0.00000000000000E+00  3.75279540882209E+00  3.75279545000000E+00
  0.00000000000000E+00 -4.41104292100573E-09  7.51074819993790E+00
 Reduced coordinates (xred)
  5.87700952500053E-10 -5.87700952500053E-10 -2.29042590011072E-04
 -4.99999994513701E-01  4.99999994513701E-01  1.66666666666667E-01
  5.87700952500053E-10 -5.87700952500053E-10  3.33562375923344E-01
 Cartesian forces (fcart) [Ha/bohr]; max,rms= 5.02520E-03 2.36890E-03 (free atoms)
 -0.00000000000000E+00 -4.75135748735817E-10 -5.02519516955607E-03
 -0.00000000000000E+00  9.50271497471634E-10 -0.00000000000000E+00
 -0.00000000000000E+00 -4.75135748735817E-10  5.02519516955607E-03
 Reduced forces (fred)
 -1.78308727598812E-09  1.78308727598812E-09  1.13151177406032E-01
  3.56617455197623E-09 -3.56617455197623E-09 -0.00000000000000E+00
 -1.78308727598812E-09  1.78308727598812E-09 -1.13151177406032E-01
 Total energy (etotal) [Ha]= -6.25485164010060E+00

 Difference of energy with previous step (new-old):
           Absolute (Ha)=-5.25198E-05
           Relative     =-8.39668E-06

--- Iteration: ( 3/10) Internal Cycle: (1/1)
--------------------------------------------------------------------------------

---SELF-CONSISTENT-FIELD CONVERGENCE--------------------------------------------

     iter   Etot(hartree)      deltaE(h)  residm     vres2    diffor    maxfor
 ETOT  1  -6.2550860777306    -6.255E+00 3.796E-05 1.687E+00 4.822E-03 2.036E-04
 ETOT  2  -6.2558668758551    -7.808E-04 7.658E-07 1.441E-01 2.969E-05 2.333E-04
 ETOT  3  -6.2559001689093    -3.329E-05 7.621E-07 2.366E-02 1.359E-04 3.692E-04
 ETOT  4  -6.2558995540688     6.148E-07 5.788E-07 2.389E-02 1.151E-05 3.807E-04
 ETOT  5  -6.2559012570316    -1.703E-06 6.587E-07 1.137E-02 1.282E-05 3.935E-04

 At SCF step    5, forces are converged : 
  for the second time, max diff in force=  1.282E-05 < toldff=  5.000E-05

 Cartesian components of stress tensor (hartree/bohr^3)
  sigma(1 1)=  1.55692141E-04  sigma(3 2)=  0.00000000E+00
  sigma(2 2)=  1.55692141E-04  sigma(3 1)=  0.00000000E+00
  sigma(3 3)= -5.24996918E-08  sigma(2 1)=  0.00000000E+00

 Integrated electronic density in atomic spheres:
 ------------------------------------------------
 Atom  Sphere_radius  Integrated_density
    1        2.00000          0.90723922
    2        2.00000          0.90939542
    3        2.00000          0.87576886

---OUTPUT-----------------------------------------------------------------------

 Cartesian coordinates (xcart) [bohr]
  0.00000000000000E+00 -2.29600900104871E-08 -2.01338248292986E-01
  0.00000000000000E+00  3.75279544592018E+00  3.75279545000000E+00
  0.00000000000000E+00 -2.29600900104871E-08  7.70692914829297E+00
 Reduced coordinates (xred)
  3.05906494457180E-09 -3.05906494457180E-09 -8.94170097000561E-03
 -4.99999999456429E-01  4.99999999456429E-01  1.66666666666667E-01
  3.05906494457180E-09 -3.05906494457180E-09  3.42275034303338E-01
 Cartesian forces (fcart) [Ha/bohr]; max,rms= 3.93520E-04 1.85507E-04 (free atoms)
 -8.61646471409404E-27  1.46303337487867E-10 -3.93520302650688E-04
  1.72329294281881E-26 -2.92606674975735E-10 -0.00000000000000E+00
 -8.61646471409404E-27  1.46303337487867E-10  3.93520302650688E-04
 Reduced forces (fred)
  5.49046499244283E-10 -5.49046499244283E-10  8.86080720762075E-03
 -1.09809299848857E-09  1.09809299848857E-09 -0.00000000000000E+00
  5.49046499244283E-10 -5.49046499244283E-10 -8.86080720762075E-03
 Total energy (etotal) [Ha]= -6.25590125703163E+00

 Difference of energy with previous step (new-old):
           Absolute (Ha)=-1.04962E-03
           Relative     =-1.67794E-04

 At Broyd/MD step   3, gradients are converged : 
  max grad (force/stress) = 3.9352E-04 < tolmxf= 5.0000E-04 ha/bohr (free atoms)

================================================================================

 ----iterations are completed or convergence reached----

 Mean square residual over all n,k,spin=   12.707E-09; max=  65.868E-08
 reduced coordinates (array xred) for    3 atoms
       0.000000003059     -0.000000003059     -0.008941700970
      -0.499999999456      0.499999999456      0.166666666667
       0.000000003059     -0.000000003059      0.342275034303
 rms dE/dt=  4.1770E-03; max dE/dt=  8.8608E-03; dE/dt below (all hartree)
    1       0.000000000552     -0.000000000552      0.008860807208
    2      -0.000000001095      0.000000001095      0.000000000000
    3       0.000000000552     -0.000000000552     -0.008860807208

 cartesian coordinates (angstrom) at end:
    1      0.00000000000000    -0.00000001214996    -0.10654361221408
    2      0.00000000000000     1.98589381848130     1.98589382064025
    3      0.00000000000000    -0.00000001214996     4.07833125349458

 cartesian forces (hartree/bohr) at end:
    1     -0.00000000000000     0.00000000014630    -0.00039352030265
    2      0.00000000000000    -0.00000000029261    -0.00000000000000
    3     -0.00000000000000     0.00000000014630     0.00039352030265
 frms,max,avg= 1.8550725E-04 3.9352030E-04   0.000E+00  8.842E-13  0.000E+00 h/b

 cartesian forces (eV/Angstrom) at end:
    1     -0.00000000000000     0.00000000752322    -0.02023562587033
    2      0.00000000000000    -0.00000001504644    -0.00000000000000
    3     -0.00000000000000     0.00000000752322     0.02023562587033
 frms,max,avg= 9.5391655E-03 2.0235626E-02   0.000E+00  4.547E-11  0.000E+00 e/A
 length scales=  7.505590900000  7.505590900000  7.505590900000 bohr
              =  3.971787641281  3.971787641281  3.971787641281 angstroms
 prteigrs : about to open file tbase4_6o_DS2_EIG
 Fermi (or HOMO) energy (hartree) =   0.06441   Average Vxc (hartree)=  -0.23492
 Eigenvalues (hartree) for nkpt=   8  k points:
 kpt#   1, nband=  7, wtk=  0.12500, kpt= -0.1250  0.0000  0.0000 (reduced coord)
  -0.30296   -0.22339   -0.10595    0.00503    0.13628    0.18448    0.25457
      occupation numbers for kpt#   1
   2.00000    2.00000    2.00000    2.11647    0.00525    0.00015    0.00000
 prteigrs : prtvol=0 or 1, do not print more k-points.


--------------------------------------------------------------------------------
 Components of total free energy (in Hartree) :

    Kinetic energy  =  2.37894176101565E+00
    Hartree energy  =  6.80371681775115E+00
    XC energy       = -2.29963422212365E+00
    Ewald energy    =  4.81412412760400E-01
    PspCore energy  =  5.80272485635873E-02
    Loc. psp. energy= -1.50464387977555E+01
    NL   psp  energy=  1.36913789772976E+00
    >>>>> Internal E= -6.25483688205856E+00

    -kT*entropy     = -1.06437497306726E-03
    >>>>>>>>> Etotal= -6.25590125703163E+00

 Other information on the energy :
    Total energy(eV)= -1.70231730495344E+02 ; Band energy (Ha)=  -6.9504826430E-01
--------------------------------------------------------------------------------
 rms coord change=  4.2152E-03   atom, delta coord (reduced):
     1        0.000000003059     -0.000000003059     -0.008941700970
     2       -0.000000006118      0.000000006118      0.000000002221
     3        0.000000003059     -0.000000003059      0.008941700970

 Cartesian components of stress tensor (hartree/bohr^3)
  sigma(1 1)=  1.55692141E-04  sigma(3 2)=  0.00000000E+00
  sigma(2 2)=  1.55692141E-04  sigma(3 1)=  0.00000000E+00
  sigma(3 3)= -5.24996918E-08  sigma(2 1)=  0.00000000E+00

-Cartesian components of stress tensor (GPa)         [Pressure= -3.0532E+00 GPa]
- sigma(1 1)=  4.58062015E+00  sigma(3 2)=  0.00000000E+00
- sigma(2 2)=  4.58062016E+00  sigma(3 1)=  0.00000000E+00
- sigma(3 3)= -1.54459400E-03  sigma(2 1)=  0.00000000E+00

== END DATASET(S) ==============================================================
================================================================================
  
 -outvars: echo values of variables after computation  --------
            acell      7.5055909000E+00  7.5055909000E+00  7.5055909000E+00 Bohr
              amu      2.69815390E+01
             ecut      6.00000000E+00 Hartree
           etotal1    -6.2546971881E+00
           etotal2    -6.2559012570E+00
            fcart1    -0.0000000000E+00 -2.8653103435E-10 -2.7204111012E-04
                      -0.0000000000E+00  5.7306206869E-10 -0.0000000000E+00
                      -0.0000000000E+00 -2.8653103435E-10  2.7204111012E-04
            fcart2    -8.6164647141E-27  1.4630333749E-10 -3.9352030265E-04
                       1.7232929428E-26 -2.9260667498E-10 -0.0000000000E+00
                      -8.6164647141E-27  1.4630333749E-10  3.9352030265E-04
-          fftalg         312
           ionmov           2
           jdtset        1    2
              kpt     -1.25000000E-01  0.00000000E+00  0.00000000E+00
                      -3.75000000E-01  0.00000000E+00  0.00000000E+00
                      -2.50000000E-01  1.25000000E-01  0.00000000E+00
                       5.00000000E-01  1.25000000E-01  0.00000000E+00
                      -3.75000000E-01  2.50000000E-01  0.00000000E+00
                       2.50000000E-01  1.25000000E-01  0.00000000E+00
                       3.75000000E-01  2.50000000E-01  0.00000000E+00
                       5.00000000E-01  3.75000000E-01  0.00000000E+00
         kptrlatt        4    4    0     -4    4    0      0    0    1
          kptrlen      3.00223636E+01
P           mkmem           8
            natom           3
            nband           7
           ndtset           2
            ngfft1         12      12      45
            ngfft2         12      12      50
             nkpt           8
            nstep          10
             nsym           4
            ntime          10
           ntypat           1
              occ1     2.000000  2.000000  2.000000  2.133556  0.003050  0.000198
                       0.000000
                       2.000000  2.000000  2.000561  2.017335  2.122393  0.099822
                       0.005164
                       2.000000  2.000000  2.000126  1.485361  0.870709  0.004856
                       0.001144
                       2.000000  2.000000  2.000295  2.000463  1.670792  0.560393
                       0.002917
                       2.000000  2.000000  2.034403  2.141607  1.012346  0.004690
                       0.002557
                       2.000000  2.000000  2.000126  1.485361  0.870709  0.004856
                       0.001144
                       2.000000  2.000000  2.034403  2.141607  1.012346  0.004690
                       0.002557
                       2.000331  2.000591  2.130772  2.130062  0.000817  0.001538
                       0.003354
              occ2     2.000000  2.000000  2.000000  2.116466  0.005250  0.000145
                       0.000000
                       2.000000  2.000000  2.000786  2.019604  2.115604  0.165413
                       0.005081
                       2.000000  2.000000  2.000154  1.663147  0.761031  0.004700
                       0.000341
                       2.000000  2.000000  2.000328  2.000557  1.607049  0.541878
                       0.003607
                       2.000000  2.000000  2.041618  2.140202  0.963707  0.003599
                       0.002127
                       2.000000  2.000000  2.000154  1.663147  0.761031  0.004700
                       0.000341
                       2.000000  2.000000  2.041618  2.140202  0.963707  0.003599
                       0.002127
                       2.000478  2.000812  2.126522  2.122894  0.000031  0.002411
                       0.003831
           occopt           4
        optforces           1
            rprim1     5.0000000000E-01 -5.0000000000E-01  0.0000000000E+00
                       5.0000000000E-01  5.0000000000E-01  0.0000000000E+00
                       0.0000000000E+00  0.0000000000E+00  2.5000000000E+00
            rprim2     5.0000000000E-01 -5.0000000000E-01  0.0000000000E+00
                       5.0000000000E-01  5.0000000000E-01  0.0000000000E+00
                       0.0000000000E+00  0.0000000000E+00  3.0000000000E+00
           shiftk      5.00000000E-01  5.00000000E-01  0.00000000E+00
          spgroup          38
           strten1     1.7030383982E-04  1.7030384004E-04 -3.7023153186E-06
                       0.0000000000E+00  0.0000000000E+00  0.0000000000E+00
           strten2     1.5569214054E-04  1.5569214088E-04 -5.2499691755E-08
                       0.0000000000E+00  0.0000000000E+00  0.0000000000E+00
           symrel      1  0  0   0  1  0   0  0  1       1  0  0   0  1  0   0  0 -1
                       0 -1  0  -1  0  0   0  0 -1       0 -1  0  -1  0  0   0  0  1
            tnons1     0.0000000  0.0000000  0.0000000     0.0000000  0.0000000  0.4000000
                       0.0000000  0.0000000  0.4000000     0.0000000  0.0000000  0.0000000
            tnons2     0.0000000  0.0000000  0.0000000     0.0000000  0.0000000  0.3333333
                       0.0000000  0.0000000  0.3333333     0.0000000  0.0000000  0.0000000
           toldff      5.00000000E-05
           tolmxf      5.00000000E-04
           tsmear      4.00000000E-02 Hartree
            typat      1  1  1
              wtk        0.12500    0.12500    0.12500    0.12500    0.12500    0.12500
                         0.12500    0.12500
           xangst1     0.0000000000E+00 -2.8653532900E-09 -8.7210437727E-02
                       0.0000000000E+00  1.9858937999E+00  1.9858938206E+00
                       0.0000000000E+00 -2.8653532900E-09  4.0589980790E+00
           xangst2     0.0000000000E+00 -1.2149956341E-08 -1.0654361221E-01
                       0.0000000000E+00  1.9858938185E+00  1.9858938206E+00
                       0.0000000000E+00 -1.2149956341E-08  4.0783312535E+00
            xcart1     0.0000000000E+00 -5.4147329921E-09 -1.6480384323E-01
                       0.0000000000E+00  3.7527954108E+00  3.7527954500E+00
                       0.0000000000E+00 -5.4147329921E-09  7.6703947432E+00
            xcart2     0.0000000000E+00 -2.2960090010E-08 -2.0133824829E-01
                       0.0000000000E+00  3.7527954459E+00  3.7527954500E+00
                       0.0000000000E+00 -2.2960090010E-08  7.7069291483E+00
             xred1     7.2142660907E-10 -7.2142660907E-10 -8.7829909959E-03
                      -4.9999999478E-01  4.9999999478E-01  2.0000000000E-01
                       7.2142660907E-10 -7.2142660907E-10  4.0878299100E-01
             xred2     3.0590649446E-09 -3.0590649446E-09 -8.9417009700E-03
                      -4.9999999946E-01  4.9999999946E-01  1.6666666667E-01
                       3.0590649446E-09 -3.0590649446E-09  3.4227503430E-01
            znucl       13.00000

================================================================================


- Timing analysis has been suppressed with timopt=0



================================================================================

 Suggested references for the acknowledgment of ABINIT usage.

 The users of ABINIT have little formal obligations with respect to the ABINIT group
 (those specified in the GNU General Public License, http://www.gnu.org/copyleft/gpl.txt).
 However, it is common practice in the scientific literature,
 to acknowledge the efforts of people that have made the research possible.
 In this spirit, please find below suggested citations of work written by ABINIT developers,
 corresponding to implementations inside of ABINIT that you have used in the present run.
 Note also that it will be of great value to readers of publications presenting these results,
 to read papers enabling them to understand the theoretical formalism and details
 of the ABINIT implementation.
 For information on why they are suggested, see also https://docs.abinit.org/theory/acknowledgments.
-
- [1] Recent developments in the ABINIT software package.
- Computer Phys. Comm. 205, 106 (2016).
- X.Gonze, F.Jollet, F.Abreu Araujo, D.Adams, B.Amadon, T.Applencourt,
- C.Audouze, J.-M.Beuken, J.Bieder, A.Bokhanchuk, E.Bousquet, F.Bruneval
- D.Caliste, M.Cote, F.Dahm, F.Da Pieve, M.Delaveau, M.Di Gennaro,
- B.Dorado, C.Espejo, G.Geneste, L.Genovese, A.Gerossier, M.Giantomassi,
- Y.Gillet, D.R.Hamann, L.He, G.Jomard, J.Laflamme Janssen, S.Le Roux,
- A.Levitt, A.Lherbier, F.Liu, I.Lukacevic, A.Martin, C.Martins,
- M.J.T.Oliveira, S.Ponce, Y.Pouillon, T.Rangel, G.-M.Rignanese,
- A.H.Romero, B.Rousseau, O.Rubel, A.A.Shukri, M.Stankovski, M.Torrent,
- M.J.Van Setten, B.Van Troeye, M.J.Verstraete, D.Waroquier, J.Wiktor,
- B.Xu, A.Zhou, J.W.Zwanziger.
- Comment : the fourth generic paper describing the ABINIT project.
- Note that a version of this paper, that is not formatted for Computer Phys. Comm. 
- is available at https://www.abinit.org/about/ABINIT16.pdf .
- The licence allows the authors to put it on the Web.
- DOI and bibtex : see https://docs.abinit.org/theory/bibliography/#gonze2016
-
- [2] Ab initio pseudopotentials for electronic structure calculations of poly-atomic systems, 
- using density-functional theory.
- M. Fuchs, M. Scheffler, Comput. Phys. Commun. 119, 67 (1999).
- Comment : Some pseudopotential generated using the FHI code were used.
- DOI and bibtex : see https://docs.abinit.org/theory/bibliography/#fuchs1999
-
- [3] ABINIT : First-principles approach of materials and nanosystem properties.
- Computer Phys. Comm. 180, 2582-2615 (2009).
- X. Gonze, B. Amadon, P.-M. Anglade, J.-M. Beuken, F. Bottin, P. Boulanger, F. Bruneval,
- D. Caliste, R. Caracas, M. Cote, T. Deutsch, L. Genovese, Ph. Ghosez, M. Giantomassi
- S. Goedecker, D.R. Hamann, P. Hermet, F. Jollet, G. Jomard, S. Leroux, M. Mancini, S. Mazevet,
- M.J.T. Oliveira, G. Onida, Y. Pouillon, T. Rangel, G.-M. Rignanese, D. Sangalli, R. Shaltaf,
- M. Torrent, M.J. Verstraete, G. Zerah, J.W. Zwanziger
- Comment : the third generic paper describing the ABINIT project.
- Note that a version of this paper, that is not formatted for Computer Phys. Comm. 
- is available at https://www.abinit.org/about/ABINIT_CPC_v10.pdf .
- The licence allows the authors to put it on the Web.
- DOI and bibtex : see https://docs.abinit.org/theory/bibliography/#gonze2009
-
- [4] A brief introduction to the ABINIT software package.
- Z. Kristallogr. 220, 558-562 (2005).
- X. Gonze, G.-M. Rignanese, M. Verstraete, J.-M. Beuken, Y. Pouillon, R. Caracas, F. Jollet,
- M. Torrent, G. Zerah, M. Mikami, Ph. Ghosez, M. Veithen, J.-Y. Raty, V. Olevano, F. Bruneval,
- L. Reining, R. Godby, G. Onida, D.R. Hamann, and D.C. Allan.
- Comment : the second generic paper describing the ABINIT project. Note that this paper
- should be cited especially if you are using the GW part of ABINIT, as several authors
- of this part are not in the list of authors of the first or third paper.
- The .pdf of the latter paper is available at https://www.abinit.org/about/zfk_0505-06_558-562.pdf.
- Note that it should not redistributed (Copyright by Oldenburg Wissenshaftverlag,
- the licence allows the authors to put it on the Web).
- DOI and bibtex : see https://docs.abinit.org/theory/bibliography/#gonze2005
-
- And optionally:
-
- [5] First-principles computation of material properties : the ABINIT software project. 
- X. Gonze, J.-M. Beuken, R. Caracas, F. Detraux, M. Fuchs, G.-M. Rignanese, L. Sindic,
- M. Verstraete, G. Zerah, F. Jollet, M. Torrent, A. Roy, M. Mikami, Ph. Ghosez, J.-Y. Raty, D.C. Allan.
- Computational Materials Science 25, 478-492 (2002). http://dx.doi.org/10.1016/S0927-0256(02)00325-7
- Comment : the original paper describing the ABINIT project.
- DOI and bibtex : see https://docs.abinit.org/theory/bibliography/#gonze2002
-
- Proc.   0 individual time (sec): cpu=          7.8  wall=          7.9

================================================================================

 Calculation completed.
.Delivered   5 WARNINGs and   4 COMMENTs to log file.
+Overall time at end (sec) : cpu=          7.8  wall=          7.9
