  ABINIT 8.11.13
  
  Give name for formatted input file: 
opt.in
  Give name for formatted output file:
opt.out
  Give root name for generic input files:
opti
  Give root name for generic output files:
opto
  Give root name for generic temporary files:
opt
 
--- !COMMENT
src_file: m_dtfil.F90
src_line: 1450
message: |
    Output file: opt.out already exists.
...
 
 
--- !COMMENT
src_file: m_dtfil.F90
src_line: 1474
message: |
    Renaming old opt.out to opt.out0001
...
 

.Version 8.11.13 of ABINIT 
.(MPI version, prepared for a x86_64_linux_intel14.0 computer) 

.Copyright (C) 1998-2019 ABINIT group . 
 ABINIT comes with ABSOLUTELY NO WARRANTY.
 It is free software, and you are welcome to redistribute it
 under certain conditions (GNU General Public License,
 see ~abinit/COPYING or http://www.gnu.org/copyleft/gpl.txt).

 ABINIT is a project of the Universite Catholique de Louvain,
 Corning Inc. and other collaborators, see ~abinit/doc/developers/contributors.txt .
 Please read https://docs.abinit.org/theory/acknowledgments for suggested
 acknowledgments of the ABINIT effort.
 For more information, see https://www.abinit.org .

.Starting date : Mon  6 Jan 2020.
- ( at 15h06 )
  
 
 ++++++++++++++++++++++++++++++++++++++++++++++++++++++++++++++++++++++++++++++
 
 === Build Information === 
  Version       : 8.11.13
  Build target  : x86_64_linux_intel14.0
  Build date    : 20191206
 
 === Compiler Suite === 
  C compiler       : intel14.0
  C++ compiler     : gnu14.0
  Fortran compiler : intel14.0
  CFLAGS           :  -g -O2
  CXXFLAGS         :  -g -O2 -mtune=native -march=native
  FCFLAGS          :  -g -extend-source -nofpscomp
  FC_LDFLAGS       :    -static-intel -static-libgcc
 
 === Optimizations === 
  Debug level        : basic
  Optimization level : standard
  Architecture       : intel_xeon
 
 === Multicore === 
  Parallel build : yes
  Parallel I/O   : yes
  openMP support : no
  GPU support    : no
 
 === Connectors / Fallbacks === 
  Connectors on : yes
  Fallbacks on  : yes
  DFT flavor    : libxc-fallback
  FFT flavor    : fftw3
  LINALG flavor : mkl
  TIMER flavor  : abinit
  TRIO flavor   : netcdf
 
 === Experimental features === 
  Exports             : no
  GW double-precision : yes
 
 ++++++++++++++++++++++++++++++++++++++++++++++++++++++++++++++++++++++++++++++
 

 ++++++++++++++++++++++++++++++++++++++++++++++++++++++++++++++++++++++++++++++
 Default optimizations:
   -O3


 Optimizations for 43_ptgroups:
   -O0


 ++++++++++++++++++++++++++++++++++++++++++++++++++++++++++++++++++++++++++++++


 ++++++++++++++++++++++++++++++++++++++++++++++++++++++++++++++++++++++++++++++
 CPP options activated during the build:

                  CC_INTEL                   CXX_GNU                  FC_INTEL
 
 HAVE_FC_ALLOCATABLE_DT...             HAVE_FC_ASYNC  HAVE_FC_COMMAND_ARGUMENT
 
        HAVE_FC_CONTIGUOUS           HAVE_FC_CPUTIME             HAVE_FC_ETIME
 
              HAVE_FC_EXIT             HAVE_FC_FLUSH             HAVE_FC_GAMMA
 
            HAVE_FC_GETENV            HAVE_FC_GETPID   HAVE_FC_IEEE_ARITHMETIC
 
   HAVE_FC_IEEE_EXCEPTIONS             HAVE_FC_IOMSG     HAVE_FC_ISO_C_BINDING
 
  HAVE_FC_ISO_FORTRAN_2008        HAVE_FC_LONG_LINES        HAVE_FC_MOVE_ALLOC
 
  HAVE_FC_ON_THE_FLY_SHAPE           HAVE_FC_PRIVATE         HAVE_FC_PROTECTED
 
           HAVE_FC_SHIFTLR         HAVE_FC_STREAM_IO            HAVE_FC_SYSTEM
 
                  HAVE_FFT            HAVE_FFT_FFTW3              HAVE_FFT_MPI
 
           HAVE_FFT_SERIAL               HAVE_GW_DPC        HAVE_LIBPAW_ABINIT
 
      HAVE_LIBTETRA_ABINIT                HAVE_LIBXC               HAVE_LINALG
 
         HAVE_LINALG_AXPBY        HAVE_LINALG_GEMM3M  HAVE_LINALG_MKL_IMATCOPY
 
   HAVE_LINALG_MKL_OMATADD  HAVE_LINALG_MKL_OMATCOPY   HAVE_LINALG_MKL_THREADS
 
        HAVE_LINALG_SERIAL                  HAVE_MPI                 HAVE_MPI2
 
       HAVE_MPI_IALLREDUCE        HAVE_MPI_IALLTOALL       HAVE_MPI_IALLTOALLV
 
           HAVE_MPI_IBCAST         HAVE_MPI_IGATHERV        HAVE_MPI_INTEGER16
 
               HAVE_MPI_IO HAVE_MPI_TYPE_CREATE_S...               HAVE_NETCDF
 
           HAVE_NETCDF_MPI                HAVE_NUMPY             HAVE_OS_LINUX
 
         HAVE_TIMER_ABINIT                  HAVE_XML              USE_MACROAVE
 
 ++++++++++++++++++++++++++++++++++++++++++++++++++++++++++++++++++++++++++++++

- input  file    -> opt.in
- output file    -> opt.out
- root for input  files -> opti
- root for output files -> opto
 
Netcdf library supports MPI-IO
-instrng: 55 lines of input have been read from file opt.in
 

 Please give name of formatted atomic psp file
 For atom type 1, psp file is /CECI/home/ucl/naps/jovbever/.PsP/Si/Si.psp8
  read the values zionpsp=  4.0 , pspcod=   8 , lmax=   2
 
 inpspheads: deduce mpsang = 3, n1xccc = 2501.

======================================================= 
invars1m : enter jdtset= 0
 
 symlatt: the Bravais lattice is cF (face-centered cubic)
  xred   is defined in input file
 ingeo: takes atomic coordinates from input array xred
 
 symlatt: the Bravais lattice is cF (face-centered cubic)
 
 symlatt: the Bravais lattice is cF (face-centered cubic)
 symspgr: spgroup= 227  Fd -3 m   (=Oh^7)
 symspgr: optical characteristics = isotropic
 For input ecut=  5.512500E+01 best grid ngfft=      50      50      50
       max ecut=  5.778657E+01
 
 ==== FFT mesh ====
  FFT mesh divisions ........................    50   50   50
  Augmented FFT divisions ...................    51   51   50
  FFT algorithm .............................   312
  FFT cache size ............................    16
 getmpw: optimal value of mpw= 5417
 
 Symmetries : space group Fd -3 m (#227); Bravais cF (face-center cubic)
 
 getdim_nloc : deduce lmnmax  =  18, lnmax  =   6,
                      lmnmaxso=  18, lnmaxso=   6.
memory: analysis of memory needs
================================================================================
 Values of the parameters that define the memory need of the present run
     intxc =       0    ionmov =       2      iscf =       7    lmnmax =       6
     lnmax =       6     mgfft =      50  mpssoang =       3    mqgrid =    3001
     natom =       2  nloc_mem =       1    nspden =       1   nspinor =       1
    nsppol =       1      nsym =      48    n1xccc =    2501    ntypat =       1
    occopt =       1   xclevel =       2
-    mband =           6        mffmem =           1         mkmem =         204
       mpw =        5417          nfft =      125000          nkpt =         408
================================================================================
P This job should need less than                     154.735 Mbytes of memory.
  Rough estimation (10% accuracy) of disk space for files :
_ WF disk file :    202.346 Mbytes ; DEN or POT disk file :      0.956 Mbytes.
================================================================================
 
 Biggest array : cg(disk), with    101.1740 MBytes.
 memana : allocated an array of    101.174 Mbytes, for testing purposes.
 memana: allocated     154.735Mbytes, for testing purposes. 
 The job will continue.
--------------------------------------------------------------------------------
------------- Echo of variables that govern the present computation ------------
--------------------------------------------------------------------------------
-
- outvars: echo of selected default values                                      
-   iomode0 =  0 , fftalg0 =312 , wfoptalg0 =  0
-
- outvars: echo of global parameters not present in the input file              
-  max_nthreads =    0
-
 -outvars: echo values of preprocessed input variables --------
 
 These variables are accessible in NetCDF format (opto_OUT.nc)

            acell      1.0335941857E+01  1.0335941857E+01  1.0335941857E+01 Bohr
              amu      2.80855000E+01
          dilatmx      1.05000000E+00
             ecut      5.00000000E+01 Hartree
           ecutsm      5.00000000E-01 Hartree
-          fftalg         312
           ionmov           2
              ixc          11
              kpt     -3.12500000E-02 -6.25000000E-02  0.00000000E+00
                      -3.12500000E-02 -1.25000000E-01  0.00000000E+00
                      -6.25000000E-02 -9.37500000E-02  0.00000000E+00
                      -3.12500000E-02 -9.37500000E-02  3.12500000E-02
                      -3.12500000E-02 -1.87500000E-01  0.00000000E+00
                      -6.25000000E-02 -1.56250000E-01  0.00000000E+00
                      -3.12500000E-02 -1.56250000E-01  3.12500000E-02
                      -9.37500000E-02 -1.25000000E-01  0.00000000E+00
                      -6.25000000E-02 -1.25000000E-01  3.12500000E-02
                      -3.12500000E-02 -1.25000000E-01  6.25000000E-02
                      -3.12500000E-02 -2.50000000E-01  0.00000000E+00
                      -6.25000000E-02 -2.18750000E-01  0.00000000E+00
                      -3.12500000E-02 -2.18750000E-01  3.12500000E-02
                      -9.37500000E-02 -1.87500000E-01  0.00000000E+00
                      -6.25000000E-02 -1.87500000E-01  3.12500000E-02
                      -3.12500000E-02 -1.87500000E-01  6.25000000E-02
                      -1.25000000E-01 -1.56250000E-01  0.00000000E+00
                      -9.37500000E-02 -1.56250000E-01  3.12500000E-02
                      -6.25000000E-02 -1.56250000E-01  6.25000000E-02
                      -3.12500000E-02 -1.56250000E-01  9.37500000E-02
                      -3.12500000E-02 -3.12500000E-01  0.00000000E+00
                      -6.25000000E-02 -2.81250000E-01  0.00000000E+00
                      -3.12500000E-02 -2.81250000E-01  3.12500000E-02
                      -9.37500000E-02 -2.50000000E-01  0.00000000E+00
                      -6.25000000E-02 -2.50000000E-01  3.12500000E-02
                      -3.12500000E-02 -2.50000000E-01  6.25000000E-02
                      -1.25000000E-01 -2.18750000E-01  0.00000000E+00
                      -9.37500000E-02 -2.18750000E-01  3.12500000E-02
                      -6.25000000E-02 -2.18750000E-01  6.25000000E-02
                      -3.12500000E-02 -2.18750000E-01  9.37500000E-02
                      -1.56250000E-01 -1.87500000E-01  0.00000000E+00
                      -1.25000000E-01 -1.87500000E-01  3.12500000E-02
                      -9.37500000E-02 -1.87500000E-01  6.25000000E-02
                      -6.25000000E-02 -1.87500000E-01  9.37500000E-02
                      -3.12500000E-02 -1.87500000E-01  1.25000000E-01
                      -3.12500000E-02 -3.75000000E-01  0.00000000E+00
                      -6.25000000E-02 -3.43750000E-01  0.00000000E+00
                      -3.12500000E-02 -3.43750000E-01  3.12500000E-02
                      -9.37500000E-02 -3.12500000E-01  0.00000000E+00
                      -6.25000000E-02 -3.12500000E-01  3.12500000E-02
                      -3.12500000E-02 -3.12500000E-01  6.25000000E-02
                      -1.25000000E-01 -2.81250000E-01  0.00000000E+00
                      -9.37500000E-02 -2.81250000E-01  3.12500000E-02
                      -6.25000000E-02 -2.81250000E-01  6.25000000E-02
                      -3.12500000E-02 -2.81250000E-01  9.37500000E-02
                      -1.56250000E-01 -2.50000000E-01  0.00000000E+00
                      -1.25000000E-01 -2.50000000E-01  3.12500000E-02
                      -9.37500000E-02 -2.50000000E-01  6.25000000E-02
                      -6.25000000E-02 -2.50000000E-01  9.37500000E-02
                      -3.12500000E-02 -2.50000000E-01  1.25000000E-01
                       outvar_i_n : Printing only first  50 k-points.
         kptrlatt       16  -16   16    -16   16   16    -16  -16   16
          kptrlen      1.65375070E+02
P           mkmem         204
            natom           2
            nband           6
            ngfft          50      50      50
             nkpt         408
             nsym          48
            ntime          15
           ntypat           1
              occ      2.000000  2.000000  2.000000  2.000000  0.000000  0.000000
          optcell           2
            rprim      5.0000000000E-01  5.0000000000E-01  0.0000000000E+00
                       0.0000000000E+00  5.0000000000E-01  5.0000000000E-01
                       5.0000000000E-01  0.0000000000E+00  5.0000000000E-01
           shiftk      5.00000000E-01  5.00000000E-01  5.00000000E-01
          spgroup         227
           symrel      1  0  0   0  1  0   0  0  1      -1  0  0   0 -1  0   0  0 -1
                       0 -1  1   0 -1  0   1 -1  0       0  1 -1   0  1  0  -1  1  0
                      -1  0  0  -1  0  1  -1  1  0       1  0  0   1  0 -1   1 -1  0
                       0  1 -1   1  0 -1   0  0 -1       0 -1  1  -1  0  1   0  0  1
                      -1  0  0  -1  1  0  -1  0  1       1  0  0   1 -1  0   1  0 -1
                       0 -1  1   1 -1  0   0 -1  0       0  1 -1  -1  1  0   0  1  0
                       1  0  0   0  0  1   0  1  0      -1  0  0   0  0 -1   0 -1  0
                       0  1 -1   0  0 -1   1  0 -1       0 -1  1   0  0  1  -1  0  1
                      -1  0  1  -1  1  0  -1  0  0       1  0 -1   1 -1  0   1  0  0
                       0 -1  0   1 -1  0   0 -1  1       0  1  0  -1  1  0   0  1 -1
                       1  0 -1   0  0 -1   0  1 -1      -1  0  1   0  0  1   0 -1  1
                       0  1  0   0  0  1   1  0  0       0 -1  0   0  0 -1  -1  0  0
                       1  0 -1   0  1 -1   0  0 -1      -1  0  1   0 -1  1   0  0  1
                       0 -1  0   0 -1  1   1 -1  0       0  1  0   0  1 -1  -1  1  0
                      -1  0  1  -1  0  0  -1  1  0       1  0 -1   1  0  0   1 -1  0
                       0  1  0   1  0  0   0  0  1       0 -1  0  -1  0  0   0  0 -1
                       0  0 -1   0  1 -1   1  0 -1       0  0  1   0 -1  1  -1  0  1
                       1 -1  0   0 -1  1   0 -1  0      -1  1  0   0  1 -1   0  1  0
                       0  0  1   1  0  0   0  1  0       0  0 -1  -1  0  0   0 -1  0
                      -1  1  0  -1  0  0  -1  0  1       1 -1  0   1  0  0   1  0 -1
                       0  0  1   0  1  0   1  0  0       0  0 -1   0 -1  0  -1  0  0
                       1 -1  0   0 -1  0   0 -1  1      -1  1  0   0  1  0   0  1 -1
                       0  0 -1   1  0 -1   0  1 -1       0  0  1  -1  0  1   0 -1  1
                      -1  1  0  -1  0  1  -1  0  0       1 -1  0   1  0 -1   1  0  0
            tnons      0.0000000  0.0000000  0.0000000     0.2500000  0.2500000  0.2500000
                       0.0000000  0.0000000  0.0000000     0.2500000  0.2500000  0.2500000
                       0.0000000  0.0000000  0.0000000     0.2500000  0.2500000  0.2500000
                       0.0000000  0.0000000  0.0000000     0.2500000  0.2500000  0.2500000
                       0.0000000  0.0000000  0.0000000     0.2500000  0.2500000  0.2500000
                       0.0000000  0.0000000  0.0000000     0.2500000  0.2500000  0.2500000
                       0.0000000  0.0000000  0.0000000     0.2500000  0.2500000  0.2500000
                       0.0000000  0.0000000  0.0000000     0.2500000  0.2500000  0.2500000
                       0.0000000  0.0000000  0.0000000     0.2500000  0.2500000  0.2500000
                       0.0000000  0.0000000  0.0000000     0.2500000  0.2500000  0.2500000
                       0.0000000  0.0000000  0.0000000     0.2500000  0.2500000  0.2500000
                       0.0000000  0.0000000  0.0000000     0.2500000  0.2500000  0.2500000
                       0.0000000  0.0000000  0.0000000     0.2500000  0.2500000  0.2500000
                       0.0000000  0.0000000  0.0000000     0.2500000  0.2500000  0.2500000
                       0.0000000  0.0000000  0.0000000     0.2500000  0.2500000  0.2500000
                       0.0000000  0.0000000  0.0000000     0.2500000  0.2500000  0.2500000
                       0.0000000  0.0000000  0.0000000     0.2500000  0.2500000  0.2500000
                       0.0000000  0.0000000  0.0000000     0.2500000  0.2500000  0.2500000
                       0.0000000  0.0000000  0.0000000     0.2500000  0.2500000  0.2500000
                       0.0000000  0.0000000  0.0000000     0.2500000  0.2500000  0.2500000
                       0.0000000  0.0000000  0.0000000     0.2500000  0.2500000  0.2500000
                       0.0000000  0.0000000  0.0000000     0.2500000  0.2500000  0.2500000
                       0.0000000  0.0000000  0.0000000     0.2500000  0.2500000  0.2500000
                       0.0000000  0.0000000  0.0000000     0.2500000  0.2500000  0.2500000
           tolvrs      1.00000000E-08
            typat      1  1
              wtk        0.00146    0.00146    0.00146    0.00293    0.00146    0.00146
                         0.00293    0.00146    0.00293    0.00293    0.00146    0.00146
                         0.00293    0.00146    0.00293    0.00293    0.00146    0.00293
                         0.00293    0.00293    0.00146    0.00146    0.00293    0.00146
                         0.00293    0.00293    0.00146    0.00293    0.00293    0.00293
                         0.00146    0.00293    0.00293    0.00293    0.00293    0.00146
                         0.00146    0.00293    0.00146    0.00293    0.00293    0.00146
                         0.00293    0.00293    0.00293    0.00146    0.00293    0.00293
                         0.00293    0.00293
                       outvars : Printing only first  50 k-points.
           xangst      0.0000000000E+00  0.0000000000E+00  0.0000000000E+00
                       1.3673862150E+00  1.3673862150E+00  1.3673862150E+00
            xcart      0.0000000000E+00  0.0000000000E+00  0.0000000000E+00
                       2.5839854642E+00  2.5839854642E+00  2.5839854642E+00
             xred      0.0000000000E+00  0.0000000000E+00  0.0000000000E+00
                       2.5000000000E-01  2.5000000000E-01  2.5000000000E-01
            znucl       14.00000
 
================================================================================
 
 chkinp: Checking input parameters for consistency.
 DATA TYPE INFORMATION: 
 REAL:      Data type name: REAL(DP) 
            Kind value:      8
            Precision:      15
            Smallest nonnegligible quantity relative to 1:  0.22204460E-15
            Smallest positive number:                       0.22250739-307
            Largest representable number:                   0.17976931+309
 INTEGER:   Data type name: INTEGER(default) 
            Kind value: 4
            Bit size:   32
            Largest representable number: 2147483647
 LOGICAL:   Data type name: LOGICAL 
            Kind value: 4
 CHARACTER: Data type name: CHARACTER             Kind value: 1

  ==== OpenMP parallelism is OFF ====
 
  ==== Using MPI-2 specifications ==== 
  MPI-IO support is ON
  xmpi_tag_ub ................   1073741824
  xmpi_bsize_ch ..............            1
  xmpi_bsize_int .............            4
  xmpi_bsize_sp ..............            4
  xmpi_bsize_dp ..............            8
  xmpi_bsize_spc .............            8
  xmpi_bsize_dpc .............           16
  xmpio_bsize_frm ............            4
  xmpi_address_kind ..........            8
  xmpi_offset_kind ...........            8
  MPI_WTICK ..................   1.000000000000000E-006
 
================================================================================
== DATASET  1 ==================================================================
-   nproc =    2
 
 
--- !COMMENT
src_file: m_xgScalapack.F90
src_line: 237
message: |
    xgScalapack in auto mode
...
 
 
 getdim_nloc : deduce lmnmax  =  18, lnmax  =   6,
                      lmnmaxso=  18, lnmaxso=   6.
 Exchange-correlation functional for the present dataset will be:
  GGA: Perdew-Burke-Ernzerhof functional - ixc=11
 Citation for XC functional:
  J.P.Perdew, K.Burke, M.Ernzerhof, PRL 77, 3865 (1996)
 
 Unit cell volume ucvol=  2.7605154E+02 bohr^3
 Angles (23,13,12)=  6.00000000E+01  6.00000000E+01  6.00000000E+01 degrees
 
 getcut: wavevector=  0.0000  0.0000  0.0000  ngfft=  50  50  50
         ecut(hartree)=     55.125   => boxcut(ratio)=   2.04771
- pspini: atom type   1  psp file is /CECI/home/ucl/naps/jovbever/.PsP/Si/Si.psp8
- pspatm: opening atomic psp file    /CECI/home/ucl/naps/jovbever/.PsP/Si/Si.psp8
- Si    ONCVPSP-3.2.3.1  r_core=   1.60303   1.72197   1.91712
- 14.00000   4.00000    170510                znucl, zion, pspdat
    8   11    2    4       600   0.00000      pspcod,pspxc,lmax,lloc,mmax,r2well
    5.99000000000000    4.00000000000000    0.00000000000000   rchrg,fchrg,qchrg
     nproj     2     2     2
     extension_switch     1
  valence charge integrates to:    3.95328304696650     
  pspatm : epsatm=    9.34321699
         --- l  ekb(1:nproj) -->
             0    5.168965    0.829883
             1    2.571282    0.578307
             2   -2.427311   -0.488097
 pspatm: atomic psp has been read  and splines computed
 
   1.49491472E+02                                ecore*ucvol(ha*bohr**3)
 ==== Info on pseudopotentials ====
  Norm-conserving pseudopotentials
  Number of pseudopotentials ..    1
  Number of types of atoms   ..    1
  Scalar calculation (no spin-orbit term)
  Nonlocal part applied using Legendre polynomials
  Max number of non-local projectors over l and type   2
  Highest angular momentum +1 .......   3
  Max number of (l,n)   components ..   6
  Max number of (l,m,n) components ..   6
 
 Pseudo-Core Charge Info: 
   Number of radial points for pseudo-core charge .. 2501
   XC core-correction treatment (optnlxccc) ........    1
   Radius for pseudo-core charge for each type ..... 
 
  - Atom type    1 has pseudo-core radius ..  5.9900
 
 Info on the Q-grid used for form factors in spline form: 
   Number of q-points for radial functions ffspl ..   3001
   Number of q-points for vlspl ...................   3001
   vloc is computed in Reciprocal Space
   model core charge treated in real-space
 
  XC functional for type 1 is 11
  Pseudo valence available: yes
 
 wfconv:     6 bands initialized randomly with npw=  5404, for ikpt=     1
 wfconv:     6 bands initialized randomly with npw=  5397, for ikpt=     2
 wfconv:     6 bands initialized randomly with npw=  5405, for ikpt=     3
 wfconv:     6 bands initialized randomly with npw=  5398, for ikpt=     4
 wfconv:     6 bands initialized randomly with npw=  5381, for ikpt=     5
 wfconv:     6 bands initialized randomly with npw=  5386, for ikpt=     6
 wfconv:     6 bands initialized randomly with npw=  5381, for ikpt=     7
 wfconv:     6 bands initialized randomly with npw=  5397, for ikpt=     8
 wfconv:     6 bands initialized randomly with npw=  5387, for ikpt=     9
 wfconv:     6 bands initialized randomly with npw=  5385, for ikpt=    10
 wfconv:     6 bands initialized randomly with npw=  5379, for ikpt=    11
 wfconv:     6 bands initialized randomly with npw=  5388, for ikpt=    12
 wfconv:     6 bands initialized randomly with npw=  5387, for ikpt=    13
 wfconv:     6 bands initialized randomly with npw=  5389, for ikpt=    14
 wfconv:     6 bands initialized randomly with npw=  5386, for ikpt=    15
 wfconv:     6 bands initialized randomly with npw=  5386, for ikpt=    16
 wfconv:     6 bands initialized randomly with npw=  5389, for ikpt=    17
 wfconv:     6 bands initialized randomly with npw=  5391, for ikpt=    18
 wfconv:     6 bands initialized randomly with npw=  5388, for ikpt=    19
 wfconv:     6 bands initialized randomly with npw=  5385, for ikpt=    20
 wfconv:     6 bands initialized randomly with npw=  5393, for ikpt=    21
 wfconv:     6 bands initialized randomly with npw=  5385, for ikpt=    22
 wfconv:     6 bands initialized randomly with npw=  5384, for ikpt=    23
 wfconv:     6 bands initialized randomly with npw=  5394, for ikpt=    24
 wfconv:     6 bands initialized randomly with npw=  5390, for ikpt=    25
 wfconv:     6 bands initialized randomly with npw=  5389, for ikpt=    26
 wfconv:     6 bands initialized randomly with npw=  5396, for ikpt=    27
 wfconv:     6 bands initialized randomly with npw=  5395, for ikpt=    28
 wfconv:     6 bands initialized randomly with npw=  5391, for ikpt=    29
 wfconv:     6 bands initialized randomly with npw=  5385, for ikpt=    30
 wfconv:     6 bands initialized randomly with npw=  5381, for ikpt=    31
 wfconv:     6 bands initialized randomly with npw=  5393, for ikpt=    32
 wfconv:     6 bands initialized randomly with npw=  5392, for ikpt=    33
 wfconv:     6 bands initialized randomly with npw=  5392, for ikpt=    34
 wfconv:     6 bands initialized randomly with npw=  5387, for ikpt=    35
 wfconv:     6 bands initialized randomly with npw=  5396, for ikpt=    36
 wfconv:     6 bands initialized randomly with npw=  5393, for ikpt=    37
 wfconv:     6 bands initialized randomly with npw=  5387, for ikpt=    38
 wfconv:     6 bands initialized randomly with npw=  5394, for ikpt=    39
 wfconv:     6 bands initialized randomly with npw=  5392, for ikpt=    40
 wfconv:     6 bands initialized randomly with npw=  5399, for ikpt=    41
 wfconv:     6 bands initialized randomly with npw=  5400, for ikpt=    42
 wfconv:     6 bands initialized randomly with npw=  5395, for ikpt=    43
 wfconv:     6 bands initialized randomly with npw=  5396, for ikpt=    44
 wfconv:     6 bands initialized randomly with npw=  5394, for ikpt=    45
 wfconv:     6 bands initialized randomly with npw=  5395, for ikpt=    46
 wfconv:     6 bands initialized randomly with npw=  5398, for ikpt=    47
 wfconv:     6 bands initialized randomly with npw=  5395, for ikpt=    48
 wfconv:     6 bands initialized randomly with npw=  5389, for ikpt=    49
 wfconv:     6 bands initialized randomly with npw=  5391, for ikpt=    50
_setup2: Arith. and geom. avg. npw (full set) are    5396.384    5396.380
 initro: for itypat=  1, take pseudo charge density from pp file
 
================================================================================
 
=== [ionmov= 2] Broyden-Fletcher-Goldfard-Shanno method (forces)            
================================================================================
 
--- Iteration: ( 1/15) Internal Cycle: (1/1)
--------------------------------------------------------------------------------
 
 Cartesian coordinates (xcart) [bohr]
  0.00000000000000E+00  0.00000000000000E+00  0.00000000000000E+00
  2.58398546423309E+00  2.58398546423309E+00  2.58398546423309E+00
 Reduced coordinates (xred)
  0.00000000000000E+00  0.00000000000000E+00  0.00000000000000E+00
  2.50000000000000E-01  2.50000000000000E-01  2.50000000000000E-01
 Scale of Primitive Cell (acell) [bohr]
  1.03359418569323E+01  1.03359418569323E+01  1.03359418569323E+01
 Real space primitive translations (rprimd) [bohr]
  5.16797092846617E+00  5.16797092846617E+00  0.00000000000000E+00
  0.00000000000000E+00  5.16797092846617E+00  5.16797092846617E+00
  5.16797092846617E+00  0.00000000000000E+00  5.16797092846617E+00
 Unitary Cell Volume (ucvol) [Bohr^3]=  2.76051544595982E+02
 Angles (23,13,12)= [degrees]
  6.00000000000000E+01  6.00000000000000E+01  6.00000000000000E+01
 Lengths [Bohr]
  7.30861457698674E+00  7.30861457698674E+00  7.30861457698674E+00
 
---SELF-CONSISTENT-FIELD CONVERGENCE--------------------------------------------
 
 getcut: wavevector=  0.0000  0.0000  0.0000  ngfft=  50  50  50
         ecut(hartree)=     50.000   => boxcut(ratio)=   2.15010
 
 ITER STEP NUMBER     1
 vtorho: nnsclo_now=2, note that nnsclo,dbl_nnsclo,istep=0 0 1
 Total charge density [el/Bohr^3]
      Maximum=    8.7866E-02  at reduced coord.    0.1000    0.1000    0.7000
      Minimum=    1.8364E-03  at reduced coord.    0.0000    0.0000    0.0000
   Integrated=    8.0000E+00
 ETOT  1  -8.4537009717696    -8.454E+00 5.940E-02 2.957E+01
 scprqt: <Vxc>= -3.3598154E-01 hartree
 
 Simple mixing update:
  residual square of the potential:    12.1822056891210
 scfcv_core: previous iteration took 04:57 [minutes]
 
 ITER STEP NUMBER     2
 vtorho: nnsclo_now=2, note that nnsclo,dbl_nnsclo,istep=0 0 2
 Total charge density [el/Bohr^3]
      Maximum=    8.4430E-02  at reduced coord.    0.1000    0.1000    0.7000
      Minimum=    1.6005E-03  at reduced coord.    0.0000    0.0000    0.0000
   Integrated=    8.0000E+00
 ETOT  2  -8.4626015572349    -8.901E-03 2.690E-02 5.869E-01
 scprqt: <Vxc>= -3.3811523E-01 hartree
 
 Pulay update with  1 previous iterations:
 mixing of old trial potential: alpha(m:m-4)=   1.13     -0.134
 scfcv_core: previous iteration took 04:42 [minutes]
 
 ITER STEP NUMBER     3
 vtorho: nnsclo_now=1, note that nnsclo,dbl_nnsclo,istep=0 0 3
 Total charge density [el/Bohr^3]
      Maximum=    8.4044E-02  at reduced coord.    0.1000    0.1000    0.7000
      Minimum=    1.6045E-03  at reduced coord.    0.0000    0.0000    0.0000
   Integrated=    8.0000E+00
 ETOT  3  -8.4626314226069    -2.987E-05 2.180E-03 8.461E-03
 scprqt: <Vxc>= -3.3841514E-01 hartree
 
 Pulay update with  2 previous iterations:
 mixing of old trial potential: alpha(m:m-4)=   1.14     -0.153      0.127E-01
 scfcv_core: previous iteration took 02:09 [minutes]
 
 ITER STEP NUMBER     4
 vtorho: nnsclo_now=1, note that nnsclo,dbl_nnsclo,istep=0 0 4
 Total charge density [el/Bohr^3]
      Maximum=    8.4036E-02  at reduced coord.    0.1000    0.1000    0.7000
      Minimum=    1.6049E-03  at reduced coord.    0.0000    0.0000    0.0000
   Integrated=    8.0000E+00
 ETOT  4  -8.4626316739774    -2.514E-07 8.747E-04 5.295E-04
 scprqt: <Vxc>= -3.3844076E-01 hartree
 
 Pulay update with  3 previous iterations:
 mixing of old trial potential: alpha(m:m-4)=   1.39     -0.434      0.484E-01 -0.500E-02
 scfcv_core: previous iteration took 01:49 [minutes]
 
 ITER STEP NUMBER     5
 vtorho: nnsclo_now=1, note that nnsclo,dbl_nnsclo,istep=0 0 5
 Total charge density [el/Bohr^3]
      Maximum=    8.4033E-02  at reduced coord.    0.1000    0.1000    0.7000
      Minimum=    1.6049E-03  at reduced coord.    0.0000    0.0000    0.0000
   Integrated=    8.0000E+00
 ETOT  5  -8.4626316868251    -1.285E-08 4.565E-04 9.803E-06
 scprqt: <Vxc>= -3.3844838E-01 hartree
 
 Pulay update with  4 previous iterations:
 mixing of old trial potential: alpha(m:m-4)=   1.39     -0.498      0.114     -0.930E-02  0.914E-03
 scfcv_core: previous iteration took 01:41 [minutes]
 
 ITER STEP NUMBER     6
 vtorho: nnsclo_now=1, note that nnsclo,dbl_nnsclo,istep=0 0 6
 Total charge density [el/Bohr^3]
      Maximum=    8.4032E-02  at reduced coord.    0.1000    0.1000    0.7000
      Minimum=    1.6049E-03  at reduced coord.    0.0000    0.0000    0.0000
   Integrated=    8.0000E+00
 ETOT  6  -8.4626316869987    -1.736E-10 1.331E-04 5.562E-08
 scprqt: <Vxc>= -3.3844937E-01 hartree
 
 Pulay update with  5 previous iterations:
 mixing of old trial potential: alpha(m:m-4)=   1.13     -0.181      0.641E-01 -0.113E-01  0.499E-03
 scfcv_core: previous iteration took 01:46 [minutes]
 
 ITER STEP NUMBER     7
 vtorho: nnsclo_now=1, note that nnsclo,dbl_nnsclo,istep=0 0 7
 Total charge density [el/Bohr^3]
      Maximum=    8.4032E-02  at reduced coord.    0.1000    0.1000    0.7000
      Minimum=    1.6049E-03  at reduced coord.    0.0000    0.0000    0.0000
   Integrated=    8.0000E+00
 ETOT  7  -8.4626316869996    -9.290E-13 1.475E-04 6.628E-10
 scprqt: <Vxc>= -3.3844932E-01 hartree
 
 At SCF step    7       vres2   =  6.63E-10 < tolvrs=  1.00E-08 =>converged.
 
 Cartesian components of stress tensor (hartree/bohr^3)
  sigma(1 1)=  9.56699176E-07  sigma(3 2)=  0.00000000E+00
  sigma(2 2)=  9.56699176E-07  sigma(3 1)=  0.00000000E+00
  sigma(3 3)=  9.56699176E-07  sigma(2 1)=  0.00000000E+00
 
 
   fftdatar_write: About to write data to: opto_TIM1_DEN with iomode: IO_MODE_FORTRAN
 IO operation completed. cpu:  0.00 [s] , wall:  0.01 [s]
- Creating HDf5 file with MPI-IO support: opto_GSR.nc
 Write iteration in HIST netCDF file
 
---OUTPUT-----------------------------------------------------------------------
 
 Cartesian coordinates (xcart) [bohr]
  0.00000000000000E+00  0.00000000000000E+00  0.00000000000000E+00
  2.58398546423309E+00  2.58398546423309E+00  2.58398546423309E+00
 Reduced coordinates (xred)
  0.00000000000000E+00  0.00000000000000E+00  0.00000000000000E+00
  2.50000000000000E-01  2.50000000000000E-01  2.50000000000000E-01
 Cartesian forces (fcart) [Ha/bohr]; max,rms= 0.00000E+00 0.00000E+00 (free atoms)
  0.00000000000000E+00  0.00000000000000E+00  0.00000000000000E+00
  0.00000000000000E+00  0.00000000000000E+00  0.00000000000000E+00
 Reduced forces (fred)
  0.00000000000000E+00  0.00000000000000E+00  0.00000000000000E+00
  0.00000000000000E+00  0.00000000000000E+00  0.00000000000000E+00
 Scale of Primitive Cell (acell) [bohr]
  1.03359418569323E+01  1.03359418569323E+01  1.03359418569323E+01
 Real space primitive translations (rprimd) [bohr]
  5.16797092846617E+00  5.16797092846617E+00  0.00000000000000E+00
  0.00000000000000E+00  5.16797092846617E+00  5.16797092846617E+00
  5.16797092846617E+00  0.00000000000000E+00  5.16797092846617E+00
 Unitary Cell Volume (ucvol) [Bohr^3]=  2.76051544595982E+02
 Angles (23,13,12)= [degrees]
  6.00000000000000E+01  6.00000000000000E+01  6.00000000000000E+01
 Lengths [Bohr]
  7.30861457698674E+00  7.30861457698674E+00  7.30861457698674E+00
 Stress tensor in cartesian coordinates (strten) [Ha/bohr^3]
  9.56699175989114E-07  0.00000000000000E+00  0.00000000000000E+00
  0.00000000000000E+00  9.56699175989548E-07  0.00000000000000E+00
  0.00000000000000E+00  0.00000000000000E+00  9.56699175988680E-07
 Total energy (etotal) [Ha]= -8.46263168699964E+00
 fconv : at Broyd/MD step   1, gradients have not converged yet. 
  max grad (force/stress) = 9.5670E-05 > tolmxf= 5.0000E-05 ha/bohr (free atoms)
 
Inverse hessian has been initialized.
 EXIT:           1           1
 mover: previous time step took 19:08 [minutes]
 
--- Iteration: ( 2/15) Internal Cycle: (1/1)
--------------------------------------------------------------------------------
 
 Cartesian coordinates (xcart) [bohr]
  0.00000000000000E+00  0.00000000000000E+00  0.00000000000000E+00
  2.58391130133016E+00  2.58391130133016E+00  2.58391130133016E+00
 Reduced coordinates (xred)
  0.00000000000000E+00  0.00000000000000E+00  0.00000000000000E+00
  2.50000000000000E-01  2.50000000000000E-01  2.50000000000000E-01
 Scale of Primitive Cell (acell) [bohr]
  7.30840481262044E+00  7.30840481262044E+00  7.30840481262044E+00
 Real space primitive translations (rprimd) [bohr]
  5.16782260266031E+00  5.16782260266031E+00  0.00000000000000E+00
  1.19533339903679E-17  5.16782260266031E+00  5.16782260266031E+00
  5.16782260266031E+00  1.19533339903679E-17  5.16782260266031E+00
 Unitary Cell Volume (ucvol) [Bohr^3]=  2.76027776432493E+02
 Angles (23,13,12)= [degrees]
  6.00000000000000E+01  6.00000000000000E+01  6.00000000000000E+01
 Lengths [Bohr]
  7.30840481262044E+00  7.30840481262044E+00  7.30840481262044E+00
 
---SELF-CONSISTENT-FIELD CONVERGENCE--------------------------------------------
 
 getcut: wavevector=  0.0000  0.0000  0.0000  ngfft=  50  50  50
         ecut(hartree)=     50.000   => boxcut(ratio)=   2.15016
 
 ITER STEP NUMBER     1
 vtorho: nnsclo_now=2, note that nnsclo,dbl_nnsclo,istep=0 0 1
mpirun: Forwarding signal 18 to job
