
.Version 8.11.13 of ABINIT 
.(MPI version, prepared for a x86_64_linux_intel14.0 computer) 

.Copyright (C) 1998-2019 ABINIT group . 
 ABINIT comes with ABSOLUTELY NO WARRANTY.
 It is free software, and you are welcome to redistribute it
 under certain conditions (GNU General Public License,
 see ~abinit/COPYING or http://www.gnu.org/copyleft/gpl.txt).

 ABINIT is a project of the Universite Catholique de Louvain,
 Corning Inc. and other collaborators, see ~abinit/doc/developers/contributors.txt .
 Please read https://docs.abinit.org/theory/acknowledgments for suggested
 acknowledgments of the ABINIT effort.
 For more information, see https://www.abinit.org .

.Starting date : Mon  6 Jan 2020.
- ( at 15h06 )
  
- input  file    -> opt.in
- output file    -> opt.out
- root for input  files -> opti
- root for output files -> opto
 
 
 Symmetries : space group Fd -3 m (#227); Bravais cF (face-center cubic)
================================================================================
 Values of the parameters that define the memory need of the present run
     intxc =       0    ionmov =       2      iscf =       7    lmnmax =       6
     lnmax =       6     mgfft =      50  mpssoang =       3    mqgrid =    3001
     natom =       2  nloc_mem =       1    nspden =       1   nspinor =       1
    nsppol =       1      nsym =      48    n1xccc =    2501    ntypat =       1
    occopt =       1   xclevel =       2
-    mband =           6        mffmem =           1         mkmem =         204
       mpw =        5417          nfft =      125000          nkpt =         408
================================================================================
P This job should need less than                     154.735 Mbytes of memory.
  Rough estimation (10% accuracy) of disk space for files :
_ WF disk file :    202.346 Mbytes ; DEN or POT disk file :      0.956 Mbytes.
================================================================================
 
--------------------------------------------------------------------------------
------------- Echo of variables that govern the present computation ------------
--------------------------------------------------------------------------------
-
- outvars: echo of selected default values                                      
-   iomode0 =  0 , fftalg0 =312 , wfoptalg0 =  0
-
- outvars: echo of global parameters not present in the input file              
-  max_nthreads =    0
-
 -outvars: echo values of preprocessed input variables --------
            acell      1.0335941857E+01  1.0335941857E+01  1.0335941857E+01 Bohr
              amu      2.80855000E+01
          dilatmx      1.05000000E+00
             ecut      5.00000000E+01 Hartree
           ecutsm      5.00000000E-01 Hartree
-          fftalg         312
           ionmov           2
              ixc          11
              kpt     -3.12500000E-02 -6.25000000E-02  0.00000000E+00
                      -3.12500000E-02 -1.25000000E-01  0.00000000E+00
                      -6.25000000E-02 -9.37500000E-02  0.00000000E+00
                      -3.12500000E-02 -9.37500000E-02  3.12500000E-02
                      -3.12500000E-02 -1.87500000E-01  0.00000000E+00
                      -6.25000000E-02 -1.56250000E-01  0.00000000E+00
                      -3.12500000E-02 -1.56250000E-01  3.12500000E-02
                      -9.37500000E-02 -1.25000000E-01  0.00000000E+00
                      -6.25000000E-02 -1.25000000E-01  3.12500000E-02
                      -3.12500000E-02 -1.25000000E-01  6.25000000E-02
                      -3.12500000E-02 -2.50000000E-01  0.00000000E+00
                      -6.25000000E-02 -2.18750000E-01  0.00000000E+00
                      -3.12500000E-02 -2.18750000E-01  3.12500000E-02
                      -9.37500000E-02 -1.87500000E-01  0.00000000E+00
                      -6.25000000E-02 -1.87500000E-01  3.12500000E-02
                      -3.12500000E-02 -1.87500000E-01  6.25000000E-02
                      -1.25000000E-01 -1.56250000E-01  0.00000000E+00
                      -9.37500000E-02 -1.56250000E-01  3.12500000E-02
                      -6.25000000E-02 -1.56250000E-01  6.25000000E-02
                      -3.12500000E-02 -1.56250000E-01  9.37500000E-02
                      -3.12500000E-02 -3.12500000E-01  0.00000000E+00
                      -6.25000000E-02 -2.81250000E-01  0.00000000E+00
                      -3.12500000E-02 -2.81250000E-01  3.12500000E-02
                      -9.37500000E-02 -2.50000000E-01  0.00000000E+00
                      -6.25000000E-02 -2.50000000E-01  3.12500000E-02
                      -3.12500000E-02 -2.50000000E-01  6.25000000E-02
                      -1.25000000E-01 -2.18750000E-01  0.00000000E+00
                      -9.37500000E-02 -2.18750000E-01  3.12500000E-02
                      -6.25000000E-02 -2.18750000E-01  6.25000000E-02
                      -3.12500000E-02 -2.18750000E-01  9.37500000E-02
                      -1.56250000E-01 -1.87500000E-01  0.00000000E+00
                      -1.25000000E-01 -1.87500000E-01  3.12500000E-02
                      -9.37500000E-02 -1.87500000E-01  6.25000000E-02
                      -6.25000000E-02 -1.87500000E-01  9.37500000E-02
                      -3.12500000E-02 -1.87500000E-01  1.25000000E-01
                      -3.12500000E-02 -3.75000000E-01  0.00000000E+00
                      -6.25000000E-02 -3.43750000E-01  0.00000000E+00
                      -3.12500000E-02 -3.43750000E-01  3.12500000E-02
                      -9.37500000E-02 -3.12500000E-01  0.00000000E+00
                      -6.25000000E-02 -3.12500000E-01  3.12500000E-02
                      -3.12500000E-02 -3.12500000E-01  6.25000000E-02
                      -1.25000000E-01 -2.81250000E-01  0.00000000E+00
                      -9.37500000E-02 -2.81250000E-01  3.12500000E-02
                      -6.25000000E-02 -2.81250000E-01  6.25000000E-02
                      -3.12500000E-02 -2.81250000E-01  9.37500000E-02
                      -1.56250000E-01 -2.50000000E-01  0.00000000E+00
                      -1.25000000E-01 -2.50000000E-01  3.12500000E-02
                      -9.37500000E-02 -2.50000000E-01  6.25000000E-02
                      -6.25000000E-02 -2.50000000E-01  9.37500000E-02
                      -3.12500000E-02 -2.50000000E-01  1.25000000E-01
                       outvar_i_n : Printing only first  50 k-points.
         kptrlatt       16  -16   16    -16   16   16    -16  -16   16
          kptrlen      1.65375070E+02
P           mkmem         204
            natom           2
            nband           6
            ngfft          50      50      50
             nkpt         408
             nsym          48
            ntime          15
           ntypat           1
              occ      2.000000  2.000000  2.000000  2.000000  0.000000  0.000000
          optcell           2
            rprim      5.0000000000E-01  5.0000000000E-01  0.0000000000E+00
                       0.0000000000E+00  5.0000000000E-01  5.0000000000E-01
                       5.0000000000E-01  0.0000000000E+00  5.0000000000E-01
           shiftk      5.00000000E-01  5.00000000E-01  5.00000000E-01
          spgroup         227
           symrel      1  0  0   0  1  0   0  0  1      -1  0  0   0 -1  0   0  0 -1
                       0 -1  1   0 -1  0   1 -1  0       0  1 -1   0  1  0  -1  1  0
                      -1  0  0  -1  0  1  -1  1  0       1  0  0   1  0 -1   1 -1  0
                       0  1 -1   1  0 -1   0  0 -1       0 -1  1  -1  0  1   0  0  1
                      -1  0  0  -1  1  0  -1  0  1       1  0  0   1 -1  0   1  0 -1
                       0 -1  1   1 -1  0   0 -1  0       0  1 -1  -1  1  0   0  1  0
                       1  0  0   0  0  1   0  1  0      -1  0  0   0  0 -1   0 -1  0
                       0  1 -1   0  0 -1   1  0 -1       0 -1  1   0  0  1  -1  0  1
                      -1  0  1  -1  1  0  -1  0  0       1  0 -1   1 -1  0   1  0  0
                       0 -1  0   1 -1  0   0 -1  1       0  1  0  -1  1  0   0  1 -1
                       1  0 -1   0  0 -1   0  1 -1      -1  0  1   0  0  1   0 -1  1
                       0  1  0   0  0  1   1  0  0       0 -1  0   0  0 -1  -1  0  0
                       1  0 -1   0  1 -1   0  0 -1      -1  0  1   0 -1  1   0  0  1
                       0 -1  0   0 -1  1   1 -1  0       0  1  0   0  1 -1  -1  1  0
                      -1  0  1  -1  0  0  -1  1  0       1  0 -1   1  0  0   1 -1  0
                       0  1  0   1  0  0   0  0  1       0 -1  0  -1  0  0   0  0 -1
                       0  0 -1   0  1 -1   1  0 -1       0  0  1   0 -1  1  -1  0  1
                       1 -1  0   0 -1  1   0 -1  0      -1  1  0   0  1 -1   0  1  0
                       0  0  1   1  0  0   0  1  0       0  0 -1  -1  0  0   0 -1  0
                      -1  1  0  -1  0  0  -1  0  1       1 -1  0   1  0  0   1  0 -1
                       0  0  1   0  1  0   1  0  0       0  0 -1   0 -1  0  -1  0  0
                       1 -1  0   0 -1  0   0 -1  1      -1  1  0   0  1  0   0  1 -1
                       0  0 -1   1  0 -1   0  1 -1       0  0  1  -1  0  1   0 -1  1
                      -1  1  0  -1  0  1  -1  0  0       1 -1  0   1  0 -1   1  0  0
            tnons      0.0000000  0.0000000  0.0000000     0.2500000  0.2500000  0.2500000
                       0.0000000  0.0000000  0.0000000     0.2500000  0.2500000  0.2500000
                       0.0000000  0.0000000  0.0000000     0.2500000  0.2500000  0.2500000
                       0.0000000  0.0000000  0.0000000     0.2500000  0.2500000  0.2500000
                       0.0000000  0.0000000  0.0000000     0.2500000  0.2500000  0.2500000
                       0.0000000  0.0000000  0.0000000     0.2500000  0.2500000  0.2500000
                       0.0000000  0.0000000  0.0000000     0.2500000  0.2500000  0.2500000
                       0.0000000  0.0000000  0.0000000     0.2500000  0.2500000  0.2500000
                       0.0000000  0.0000000  0.0000000     0.2500000  0.2500000  0.2500000
                       0.0000000  0.0000000  0.0000000     0.2500000  0.2500000  0.2500000
                       0.0000000  0.0000000  0.0000000     0.2500000  0.2500000  0.2500000
                       0.0000000  0.0000000  0.0000000     0.2500000  0.2500000  0.2500000
                       0.0000000  0.0000000  0.0000000     0.2500000  0.2500000  0.2500000
                       0.0000000  0.0000000  0.0000000     0.2500000  0.2500000  0.2500000
                       0.0000000  0.0000000  0.0000000     0.2500000  0.2500000  0.2500000
                       0.0000000  0.0000000  0.0000000     0.2500000  0.2500000  0.2500000
                       0.0000000  0.0000000  0.0000000     0.2500000  0.2500000  0.2500000
                       0.0000000  0.0000000  0.0000000     0.2500000  0.2500000  0.2500000
                       0.0000000  0.0000000  0.0000000     0.2500000  0.2500000  0.2500000
                       0.0000000  0.0000000  0.0000000     0.2500000  0.2500000  0.2500000
                       0.0000000  0.0000000  0.0000000     0.2500000  0.2500000  0.2500000
                       0.0000000  0.0000000  0.0000000     0.2500000  0.2500000  0.2500000
                       0.0000000  0.0000000  0.0000000     0.2500000  0.2500000  0.2500000
                       0.0000000  0.0000000  0.0000000     0.2500000  0.2500000  0.2500000
           tolvrs      1.00000000E-08
            typat      1  1
              wtk        0.00146    0.00146    0.00146    0.00293    0.00146    0.00146
                         0.00293    0.00146    0.00293    0.00293    0.00146    0.00146
                         0.00293    0.00146    0.00293    0.00293    0.00146    0.00293
                         0.00293    0.00293    0.00146    0.00146    0.00293    0.00146
                         0.00293    0.00293    0.00146    0.00293    0.00293    0.00293
                         0.00146    0.00293    0.00293    0.00293    0.00293    0.00146
                         0.00146    0.00293    0.00146    0.00293    0.00293    0.00146
                         0.00293    0.00293    0.00293    0.00146    0.00293    0.00293
                         0.00293    0.00293
                       outvars : Printing only first  50 k-points.
           xangst      0.0000000000E+00  0.0000000000E+00  0.0000000000E+00
                       1.3673862150E+00  1.3673862150E+00  1.3673862150E+00
            xcart      0.0000000000E+00  0.0000000000E+00  0.0000000000E+00
                       2.5839854642E+00  2.5839854642E+00  2.5839854642E+00
             xred      0.0000000000E+00  0.0000000000E+00  0.0000000000E+00
                       2.5000000000E-01  2.5000000000E-01  2.5000000000E-01
            znucl       14.00000
 
================================================================================
 
 chkinp: Checking input parameters for consistency.
 
================================================================================
== DATASET  1 ==================================================================
-   nproc =    2
 
 Exchange-correlation functional for the present dataset will be:
  GGA: Perdew-Burke-Ernzerhof functional - ixc=11
 Citation for XC functional:
  J.P.Perdew, K.Burke, M.Ernzerhof, PRL 77, 3865 (1996)
 
 Real(R)+Recip(G) space primitive vectors, cartesian coordinates (Bohr,Bohr^-1):
 R(1)=  5.1679709  5.1679709  0.0000000  G(1)=  0.0967498  0.0967498 -0.0967498
 R(2)=  0.0000000  5.1679709  5.1679709  G(2)= -0.0967498  0.0967498  0.0967498
 R(3)=  5.1679709  0.0000000  5.1679709  G(3)=  0.0967498 -0.0967498  0.0967498
 Unit cell volume ucvol=  2.7605154E+02 bohr^3
 Angles (23,13,12)=  6.00000000E+01  6.00000000E+01  6.00000000E+01 degrees
 
 getcut: wavevector=  0.0000  0.0000  0.0000  ngfft=  50  50  50
         ecut(hartree)=     55.125   => boxcut(ratio)=   2.04771
 
--- Pseudopotential description ------------------------------------------------
- pspini: atom type   1  psp file is /CECI/home/ucl/naps/jovbever/.PsP/Si/Si.psp8
- pspatm: opening atomic psp file    /CECI/home/ucl/naps/jovbever/.PsP/Si/Si.psp8
- Si    ONCVPSP-3.2.3.1  r_core=   1.60303   1.72197   1.91712
- 14.00000   4.00000    170510                znucl, zion, pspdat
    8   11    2    4       600   0.00000      pspcod,pspxc,lmax,lloc,mmax,r2well
    5.99000000000000    4.00000000000000    0.00000000000000   rchrg,fchrg,qchrg
     nproj     2     2     2
     extension_switch     1
  pspatm : epsatm=    9.34321699
         --- l  ekb(1:nproj) -->
             0    5.168965    0.829883
             1    2.571282    0.578307
             2   -2.427311   -0.488097
 pspatm: atomic psp has been read  and splines computed
 
   1.49491472E+02                                ecore*ucvol(ha*bohr**3)
--------------------------------------------------------------------------------
 
_setup2: Arith. and geom. avg. npw (full set) are    5396.384    5396.380
 
================================================================================
 
=== [ionmov= 2] Broyden-Fletcher-Goldfard-Shanno method (forces)            
================================================================================
 
--- Iteration: ( 1/15) Internal Cycle: (1/1)
--------------------------------------------------------------------------------
 
---SELF-CONSISTENT-FIELD CONVERGENCE--------------------------------------------
 
     iter   Etot(hartree)      deltaE(h)  residm     vres2
 ETOT  1  -8.4537009717696    -8.454E+00 5.940E-02 2.957E+01
 ETOT  2  -8.4626015572349    -8.901E-03 2.690E-02 5.869E-01
 ETOT  3  -8.4626314226069    -2.987E-05 2.180E-03 8.461E-03
 ETOT  4  -8.4626316739774    -2.514E-07 8.747E-04 5.295E-04
 ETOT  5  -8.4626316868251    -1.285E-08 4.565E-04 9.803E-06
 ETOT  6  -8.4626316869987    -1.736E-10 1.331E-04 5.562E-08
 ETOT  7  -8.4626316869996    -9.290E-13 1.475E-04 6.628E-10
 
 At SCF step    7       vres2   =  6.63E-10 < tolvrs=  1.00E-08 =>converged.
 
 Cartesian components of stress tensor (hartree/bohr^3)
  sigma(1 1)=  9.56699176E-07  sigma(3 2)=  0.00000000E+00
  sigma(2 2)=  9.56699176E-07  sigma(3 1)=  0.00000000E+00
  sigma(3 3)=  9.56699176E-07  sigma(2 1)=  0.00000000E+00
 
 Integrated electronic density in atomic spheres:
 ------------------------------------------------
 Atom  Sphere_radius  Integrated_density
    1        2.00000          1.77389795
    2        2.00000          1.76896870
 
---OUTPUT-----------------------------------------------------------------------
 
 Cartesian coordinates (xcart) [bohr]
  0.00000000000000E+00  0.00000000000000E+00  0.00000000000000E+00
  2.58398546423309E+00  2.58398546423309E+00  2.58398546423309E+00
 Reduced coordinates (xred)
  0.00000000000000E+00  0.00000000000000E+00  0.00000000000000E+00
  2.50000000000000E-01  2.50000000000000E-01  2.50000000000000E-01
 Cartesian forces (fcart) [Ha/bohr]; max,rms= 0.00000E+00 0.00000E+00 (free atoms)
  0.00000000000000E+00  0.00000000000000E+00  0.00000000000000E+00
  0.00000000000000E+00  0.00000000000000E+00  0.00000000000000E+00
 Reduced forces (fred)
  0.00000000000000E+00  0.00000000000000E+00  0.00000000000000E+00
  0.00000000000000E+00  0.00000000000000E+00  0.00000000000000E+00
 Scale of Primitive Cell (acell) [bohr]
  1.03359418569323E+01  1.03359418569323E+01  1.03359418569323E+01
 Real space primitive translations (rprimd) [bohr]
  5.16797092846617E+00  5.16797092846617E+00  0.00000000000000E+00
  0.00000000000000E+00  5.16797092846617E+00  5.16797092846617E+00
  5.16797092846617E+00  0.00000000000000E+00  5.16797092846617E+00
 Unitary Cell Volume (ucvol) [Bohr^3]=  2.76051544595982E+02
 Angles (23,13,12)= [degrees]
  6.00000000000000E+01  6.00000000000000E+01  6.00000000000000E+01
 Lengths [Bohr]
  7.30861457698674E+00  7.30861457698674E+00  7.30861457698674E+00
 Stress tensor in cartesian coordinates (strten) [Ha/bohr^3]
  9.56699175989114E-07  0.00000000000000E+00  0.00000000000000E+00
  0.00000000000000E+00  9.56699175989548E-07  0.00000000000000E+00
  0.00000000000000E+00  0.00000000000000E+00  9.56699175988680E-07
 Total energy (etotal) [Ha]= -8.46263168699964E+00
 
--- Iteration: ( 2/15) Internal Cycle: (1/1)
--------------------------------------------------------------------------------
 
---SELF-CONSISTENT-FIELD CONVERGENCE--------------------------------------------
 
     iter   Etot(hartree)      deltaE(h)  residm     vres2
