--------------------------------------------------------------------------
[[2958,1],1]: A high-performance Open MPI point-to-point messaging module
was unable to find any relevant network interfaces:

Module: OpenFabrics (openib)
  Host: abipy

Another transport will be used instead, although this may result in
lower performance.
--------------------------------------------------------------------------
  ABINIT 8.10.3
  
  Give name for formatted input file: 
trf1_2.in
  Give name for formatted output file:
trf1_2.out
  Give root name for generic input files:
trf1_2i
  Give root name for generic output files:
trf1_2o
  Give root name for generic temporary files:
trf1_2

--- !COMMENT
src_file: m_dtfil.F90
src_line: 1159
message: |
    Output file trf1_2.out
     already exists.
...


--- !COMMENT
src_file: m_dtfil.F90
src_line: 1183
message: |
    Renaming old trf1_2.out to trf1_2.out0001
...


.Version 8.10.3 of ABINIT 
.(MPI version, prepared for a x86_64_linux_gnu5.4 computer) 

.Copyright (C) 1998-2018 ABINIT group . 
 ABINIT comes with ABSOLUTELY NO WARRANTY.
 It is free software, and you are welcome to redistribute it
 under certain conditions (GNU General Public License,
 see ~abinit/COPYING or http://www.gnu.org/copyleft/gpl.txt).

 ABINIT is a project of the Universite Catholique de Louvain,
 Corning Inc. and other collaborators, see ~abinit/doc/developers/contributors.txt .
 Please read https://docs.abinit.org/theory/acknowledgments for suggested
 acknowledgments of the ABINIT effort.
 For more information, see https://www.abinit.org .

.Starting date : Tue 29 Oct 2019.
- ( at 12h04 )
  

 ++++++++++++++++++++++++++++++++++++++++++++++++++++++++++++++++++++++++++++++

 === Build Information === 
  Version       : 8.10.3
  Build target  : x86_64_linux_gnu5.4
  Build date    : 20191016

 === Compiler Suite === 
  C compiler       : gnu5.4
  C++ compiler     : gnu5.4
  Fortran compiler : gnu5.4
  CFLAGS           :  -g -O2 -mtune=native -march=native
  CXXFLAGS         :  -g -O2 -mtune=native -march=native
  FCFLAGS          :  -g -ffree-line-length-none  -fopenmp
  FC_LDFLAGS       : 

 === Optimizations === 
  Debug level        : basic
  Optimization level : standard
  Architecture       : unknown_unknown

 === Multicore === 
  Parallel build : yes
  Parallel I/O   : yes
  openMP support : yes
  GPU support    : no

 === Connectors / Fallbacks === 
  Connectors on : yes
  Fallbacks on  : yes
  DFT flavor    : none
  FFT flavor    : fftw3
  LINALG flavor : atlas
  MATH flavor   : none
  TIMER flavor  : abinit
  TRIO flavor   : netcdf

 === Experimental features === 
  Bindings            : @enable_bindings@
  Exports             : no
  GW double-precision : no

 ++++++++++++++++++++++++++++++++++++++++++++++++++++++++++++++++++++++++++++++


 ++++++++++++++++++++++++++++++++++++++++++++++++++++++++++++++++++++++++++++++
 Default optimizations:
   -O2 -mtune=native -march=native


 Optimizations for 43_ptgroups:
   -O0


 ++++++++++++++++++++++++++++++++++++++++++++++++++++++++++++++++++++++++++++++


 ++++++++++++++++++++++++++++++++++++++++++++++++++++++++++++++++++++++++++++++
 CPP options activated during the build:

                    CC_GNU                   CXX_GNU                    FC_GNU
 
 HAVE_FC_ALLOCATABLE_DT...             HAVE_FC_ASYNC         HAVE_FC_BACKTRACE
 
  HAVE_FC_COMMAND_ARGUMENT      HAVE_FC_COMMAND_LINE        HAVE_FC_CONTIGUOUS
 
           HAVE_FC_CPUTIME              HAVE_FC_EXIT             HAVE_FC_FLUSH
 
             HAVE_FC_GAMMA            HAVE_FC_GETENV   HAVE_FC_IEEE_EXCEPTIONS
 
          HAVE_FC_INT_QUAD             HAVE_FC_IOMSG     HAVE_FC_ISO_C_BINDING
 
  HAVE_FC_ISO_FORTRAN_2008        HAVE_FC_LONG_LINES        HAVE_FC_MOVE_ALLOC
 
           HAVE_FC_PRIVATE         HAVE_FC_PROTECTED         HAVE_FC_STREAM_IO
 
            HAVE_FC_SYSTEM                  HAVE_FFT            HAVE_FFT_FFTW3
 
              HAVE_FFT_MPI           HAVE_FFT_SERIAL          HAVE_FORTRAN2003
 
        HAVE_LIBPAW_ABINIT      HAVE_LIBTETRA_ABINIT               HAVE_LINALG
 
        HAVE_LINALG_SERIAL                  HAVE_MPI                 HAVE_MPI2
 
       HAVE_MPI_IALLREDUCE        HAVE_MPI_IALLTOALL       HAVE_MPI_IALLTOALLV
 
        HAVE_MPI_INTEGER16               HAVE_MPI_IO HAVE_MPI_TYPE_CREATE_S...
 
               HAVE_NETCDF           HAVE_NETCDF_MPI         HAVE_OMP_COLLAPSE
 
               HAVE_OPENMP             HAVE_OS_LINUX         HAVE_TIMER_ABINIT
 
              USE_MACROAVE                                                      
 ++++++++++++++++++++++++++++++++++++++++++++++++++++++++++++++++++++++++++++++

- input  file    -> trf1_2.in
- output file    -> trf1_2.out
- root for input  files -> trf1_2i
- root for output files -> trf1_2o


--- !WARNING
src_file: m_nctk.F90
src_line: 572
message: |
    netcdf lib does not support MPI-IO and: NetCDF: Parallel operation on file opened for non-parallel access
...

  Asked to delete not existent file: __TMP_FILE__

--- !WARNING
src_file: m_nctk.F90
src_line: 592
message: |
    The netcdf library does not support parallel IO, see message above
    Abinit won't be able to produce files in parallel e.g. when paral_kgb==1 is used.
    Action: install a netcdf4+HDF5 library with MPI-IO support.
...

-instrng: 80 lines of input have been read from file trf1_2.in


 Please give name of formatted atomic psp file
 iofn2 : for atom type 1, psp file is ../../../../../Psps_for_tests/13al.981214.fhi

 Please give name of formatted atomic psp file
 iofn2 : for atom type 2, psp file is ../../../../../Psps_for_tests/33as.pspnc
  read the values zionpsp=  3.0 , pspcod=   6 , lmax=   2
  read the values zionpsp=  5.0 , pspcod=   1 , lmax=   1

 inpspheads: deduce mpsang = 3, n1xccc = 2501.
 invars1 : treat image number: 1

 symlatt : the Bravais lattice is cF (face-centered cubic)
  xred   is defined in input file
 ingeo: takes atomic coordinates from input array xred

 symlatt : the Bravais lattice is cF (face-centered cubic)

 symlatt : the Bravais lattice is cF (face-centered cubic)

--- !COMMENT
src_file: m_symfind.F90
src_line: 815
message: |
    The Bravais lattice determined only from the primitive
    vectors, bravais(1)=  7, is more symmetric
    than the real one, iholohedry=  2, obtained by taking into
    account the atomic positions. Start deforming the primitive vector set.
...


 symlatt : the Bravais lattice is hR (rhombohedral)

--- !COMMENT
src_file: m_symfind.F90
src_line: 824
message: |
    The Bravais lattice determined from modified primitive
    vectors, bravais(1)=  5, has a lower symmetry than before,
    but is still more symmetric than the real one, iholohedry=  2
    obtained by taking into account the atomic positions.
...


 symlatt : the Bravais lattice is mC (one-face-centered monoclinic)
 symspgr : spgroup=   8  Cm   (=Cs^3)
 ingeo: angdeg(1:3)=   60.00000000   60.00000000   60.00000000
 chkneu : initialized the occupation numbers for occopt=    1, spin-unpolarized or antiferromagnetic case :
  2.00  2.00  2.00  2.00
npfft, npband, npspinor and npkpt:     1    1    1    2
mpi_setup: mkmem  undefined in the input file.Use default mkmem  = nkpt
 mpi_setup: With nkpt_me=36 and mkmem  = 72, ground state wf handled in core.
 Resetting mkmem  to nkpt_me to save memory space.
mpi_setup: mkqmem undefined in the input file.Use default mkqmem = nkpt
 mpi_setup: With nkpt_me=36 and mkqmem = 72, ground state wf handled in core.
 Resetting mkqmem to nkpt_me to save memory space.
mpi_setup: mk1mem undefined in the input file.Use default mk1mem = nkpt
 mpi_setup: With nkpt_me=36 and mk1mem = 72, ground state wf handled in core.
 Resetting mk1mem to nkpt_me to save memory space.
 For input ecut=  3.000000E+00 best grid ngfft=      12      12      12
       max ecut=  3.156251E+00

 ==== FFT mesh ====
  FFT mesh divisions ........................    12   12   12
  Augmented FFT divisions ...................    13   13   12
  FFT algorithm .............................   312
  FFT cache size ............................    16
 getmpw: optimal value of mpw= 77

 Symmetries : space group Cm (#  8); Bravais mC (1-face-center monocl.)

 getdim_nloc : deduce lmnmax  =   9, lnmax  =   3,
                      lmnmaxso=   9, lnmaxso=   3.
memory : analysis of memory needs
================================================================================
 Values of the parameters that define the memory need of the present run
     intxc =       0    ionmov =       0      iscf =       7    lmnmax =       3
     lnmax =       3     mgfft =      12  mpssoang =       3    mqgrid =    3001
     natom =       2  nloc_mem =       1    nspden =       1   nspinor =       1
    nsppol =       1      nsym =       2    n1xccc =    2501    ntypat =       2
    occopt =       1   xclevel =       1
-    mband =           4        mffmem =           1         mkmem =          36
       mpw =          77          nfft =        1728          nkpt =          72
================================================================================
P This job should need less than                       1.632 Mbytes of memory.
  Rough estimation (10% accuracy) of disk space for files :
_ WF disk file :      0.340 Mbytes ; DEN or POT disk file :      0.015 Mbytes.
================================================================================

 Biggest array : f_fftgr(disk), with      0.2129 MBytes.
 memana : allocated an array of      0.213 Mbytes, for testing purposes.
 memana: allocated       1.632Mbytes, for testing purposes. 
 The job will continue.
--------------------------------------------------------------------------------
------------- Echo of variables that govern the present computation ------------
--------------------------------------------------------------------------------
-
- outvars: echo of selected default values                                      
-   iomode0 =  0 , fftalg0 =312 , wfoptalg0 =  0
-
- outvars: echo of global parameters not present in the input file              
-  max_nthreads =    1
-
 -outvars: echo values of preprocessed input variables --------
 
 These variables are accessible in NetCDF format (trf1_2o_OUT.nc)

            acell      1.0610000000E+01  1.0610000000E+01  1.0610000000E+01 Bohr
              amu      2.69815390E+01  7.49215900E+01
           diemac      9.00000000E+00
             ecut      3.00000000E+00 Hartree
-          fftalg         312
           irdwfk           1
              kpt      0.00000000E+00  0.00000000E+00 -1.25000000E-01
                       0.00000000E+00  0.00000000E+00 -3.75000000E-01
                       0.00000000E+00  1.25000000E-01 -2.50000000E-01
                       1.25000000E-01  0.00000000E+00 -2.50000000E-01
                       1.25000000E-01  1.25000000E-01 -1.25000000E-01
                       2.50000000E-01  0.00000000E+00 -1.25000000E-01
                       0.00000000E+00  1.25000000E-01  5.00000000E-01
                       0.00000000E+00  2.50000000E-01 -3.75000000E-01
                       1.25000000E-01  0.00000000E+00  5.00000000E-01
                       1.25000000E-01  1.25000000E-01 -3.75000000E-01
                       1.25000000E-01  2.50000000E-01 -2.50000000E-01
                       1.25000000E-01  3.75000000E-01 -1.25000000E-01
                       2.50000000E-01  0.00000000E+00 -3.75000000E-01
                       2.50000000E-01  1.25000000E-01 -2.50000000E-01
                       2.50000000E-01  2.50000000E-01 -1.25000000E-01
                       3.75000000E-01  0.00000000E+00 -2.50000000E-01
                       3.75000000E-01  1.25000000E-01 -1.25000000E-01
                       5.00000000E-01  0.00000000E+00 -1.25000000E-01
                       0.00000000E+00  1.25000000E-01  2.50000000E-01
                       0.00000000E+00  2.50000000E-01  3.75000000E-01
                       0.00000000E+00  3.75000000E-01  5.00000000E-01
                       1.25000000E-01  0.00000000E+00  2.50000000E-01
                       1.25000000E-01  1.25000000E-01  3.75000000E-01
                       1.25000000E-01  2.50000000E-01  5.00000000E-01
                       1.25000000E-01  3.75000000E-01 -3.75000000E-01
                       1.25000000E-01  5.00000000E-01 -2.50000000E-01
                       1.25000000E-01 -3.75000000E-01 -1.25000000E-01
                       2.50000000E-01  0.00000000E+00  3.75000000E-01
                       2.50000000E-01  1.25000000E-01  5.00000000E-01
                       2.50000000E-01  2.50000000E-01 -3.75000000E-01
                       2.50000000E-01  3.75000000E-01 -2.50000000E-01
                       2.50000000E-01  5.00000000E-01 -1.25000000E-01
                       3.75000000E-01  0.00000000E+00  5.00000000E-01
                       3.75000000E-01  1.25000000E-01 -3.75000000E-01
                       3.75000000E-01  2.50000000E-01 -2.50000000E-01
                       3.75000000E-01  3.75000000E-01 -1.25000000E-01
                       5.00000000E-01  0.00000000E+00 -3.75000000E-01
                       5.00000000E-01  1.25000000E-01 -2.50000000E-01
                      -3.75000000E-01  0.00000000E+00 -2.50000000E-01
                      -2.50000000E-01  0.00000000E+00 -1.25000000E-01
                       1.25000000E-01  0.00000000E+00  0.00000000E+00
                       1.25000000E-01  1.25000000E-01  1.25000000E-01
                       1.25000000E-01  2.50000000E-01  2.50000000E-01
                       1.25000000E-01  3.75000000E-01  3.75000000E-01
                       1.25000000E-01  5.00000000E-01  5.00000000E-01
                       1.25000000E-01 -3.75000000E-01 -3.75000000E-01
                       1.25000000E-01 -2.50000000E-01 -2.50000000E-01
                       1.25000000E-01 -1.25000000E-01 -1.25000000E-01
                       2.50000000E-01  1.25000000E-01  2.50000000E-01
                       2.50000000E-01  2.50000000E-01  3.75000000E-01
                       outvar_i_n : Printing only first  50 k-points.
         kptrlatt       -4    4    4      4   -4    4      4    4   -4
          kptrlen      4.24400000E+01
P           mkmem          36
            natom           2
            nband           4
            ngfft          12      12      12
             nkpt          72
            nstep          15
             nsym           2
           ntypat           2
              occ      2.000000  2.000000  2.000000  2.000000
            rprim      0.0000000000E+00  5.0000000000E-01  5.0000000000E-01
                       5.0000000000E-01  0.0000000000E+00  5.0000000000E-01
                       5.0000000000E-01  5.0000000000E-01  0.0000000000E+00
           shiftk      5.00000000E-01  5.00000000E-01  5.00000000E-01
          spgroup           8
           symrel      1  0  0   0  1  0   0  0  1       1  0  0   0  0  1   0  1  0
           tolvrs      1.00000000E-12
            typat      1  2
              wtk        0.01563    0.01563    0.01563    0.01563    0.01563    0.01563
                         0.01563    0.01563    0.01563    0.01563    0.01563    0.01563
                         0.01563    0.01563    0.01563    0.01563    0.01563    0.01563
                         0.01563    0.01563    0.01563    0.01563    0.01563    0.01563
                         0.01563    0.01563    0.01563    0.01563    0.01563    0.01563
                         0.01563    0.01563    0.01563    0.01563    0.01563    0.01563
                         0.01563    0.01563    0.01563    0.01563    0.00781    0.00781
                         0.00781    0.00781    0.00781    0.00781    0.00781    0.00781
                         0.01563    0.01563
                       outvars : Printing only first  50 k-points.
           xangst      0.0000000000E+00  5.6145701831E-03  5.6145701831E-03
                       1.4036425458E+00  1.4036425458E+00  1.4036425458E+00
            xcart      0.0000000000E+00  1.0610000000E-02  1.0610000000E-02
                       2.6525000000E+00  2.6525000000E+00  2.6525000000E+00
             xred      2.0000000000E-03  0.0000000000E+00  0.0000000000E+00
                       2.5000000000E-01  2.5000000000E-01  2.5000000000E-01
            znucl       13.00000   33.00000

================================================================================

 chkinp: Checking input parameters for consistency.
 DATA TYPE INFORMATION: 
 REAL:      Data type name: REAL(DP) 
            Kind value:      8
            Precision:      15
            Smallest nonnegligible quantity relative to 1:  0.22204460E-15
            Smallest positive number:                       0.22250739-307
            Largest representable number:                   0.17976931+309
 INTEGER:   Data type name: INTEGER(default) 
            Kind value: 4
            Bit size:   32
            Largest representable number: 2147483647
 LOGICAL:   Data type name: LOGICAL 
            Kind value: 4
 CHARACTER: Data type name: CHARACTER             Kind value: 1

  ==== OpenMP parallelism is ON ====
- Max_threads:       1
- Num_threads:       1
- Num_procs:         2
- Dynamic:           F
- Nested:            F
 
  ==== Using MPI-2 specifications ==== 
  MPI-IO support is ON
  xmpi_tag_ub ................   2147483647
  xmpi_bsize_ch ..............            1
  xmpi_bsize_int .............            4
  xmpi_bsize_sp ..............            4
  xmpi_bsize_dp ..............            8
  xmpi_bsize_spc .............            8
  xmpi_bsize_dpc .............           16
  xmpio_bsize_frm ............            4
  xmpi_address_kind ..........            8
  xmpi_offset_kind ...........            8
  MPI_WTICK ..................    9.9999999999999995E-007

================================================================================
== DATASET  1 ==================================================================
-   nproc =    2


--- !COMMENT
src_file: m_xgScalapack.F90
src_line: 251
message: |
    xgScalapack in auto mode
...


 getdim_nloc : deduce lmnmax  =   9, lnmax  =   3,
                      lmnmaxso=   9, lnmaxso=   3.
 Exchange-correlation functional for the present dataset will be:
  LDA: new Teter (4/93) with spin-polarized option - ixc=1
 Citation for XC functional:
  S. Goedecker, M. Teter, J. Huetter, PRB 54, 1703 (1996)

 Unit cell volume ucvol=  2.9859750E+02 bohr^3
 Angles (23,13,12)=  6.00000000E+01  6.00000000E+01  6.00000000E+01 degrees

 getcut: wavevector=  0.0000  0.0000  0.0000  ngfft=  12  12  12
         ecut(hartree)=      3.000   => boxcut(ratio)=   2.05142
 kpgio: loop on k-points done in parallel
- pspini: atom type   1  psp file is ../../../../../Psps_for_tests/13al.981214.fhi
- pspatm: opening atomic psp file    ../../../../../Psps_for_tests/13al.981214.fhi
- Aluminum, fhi98PP : Hamann-type, LDA CA PerdewWang, l=2 local
- 13.00000   3.00000    981214                znucl, zion, pspdat
    6    7    2    2       493   0.00000      pspcod,pspxc,lmax,lloc,mmax,r2well

--- !WARNING
src_file: m_pspini.F90
src_line: 1088
message: |
    Pseudopotential file pspxc= 7,
    not equal to input ixc= 1.
    These parameters must agree to get the same xc 
    in ABINIT code as in psp construction.
    Action: check psp design or input file.
    Assume experienced user. Execution will continue.
...

  No XC core correction.
  1.024700          amesh (Hamman grid)
  pspatm : epsatm=    1.36305739
         --- l  ekb(1:nproj) -->
             0    1.768744
             1    0.900554
 pspatm: atomic psp has been read  and splines computed

- pspini: atom type   2  psp file is ../../../../../Psps_for_tests/33as.pspnc
- pspatm: opening atomic psp file    ../../../../../Psps_for_tests/33as.pspnc
-  Troullier-Martins psp for element  As        Thu Oct 27 17:37:14 EDT 1994
- 33.00000   5.00000    940714                znucl, zion, pspdat
    1    1    1    1      2001   0.00000      pspcod,pspxc,lmax,lloc,mmax,r2well
    0   4.772  10.829    1   2.5306160        l,e99.0,e99.9,nproj,rcpsp
   0.00000000   0.00000000   0.00000000   0.00000000     rms, ekb1, ekb2, epsatm
    1   2.745   5.580    0   2.5306160        l,e99.0,e99.9,nproj,rcpsp
   0.00000000   0.00000000   0.00000000   0.00000000     rms, ekb1, ekb2, epsatm
    2.05731715564010    0.36322996461007    2.76014815959125   rchrg,fchrg,qchrg
  pspatm : epsatm=   27.20579911
         --- l  ekb(1:nproj) -->
             0    0.838751
 pspatm: atomic psp has been read  and splines computed

   2.28550852E+02                                ecore*ucvol(ha*bohr**3)
 ==== Info on pseudopotentials ====
  Norm-conserving pseudopotentials
  Number of pseudopotentials ..    2
  Number of types of atoms   ..    2
  Scalar calculation (no spin-orbit term)
  Nonlocal part applied using Legendre polynomials
  Max number of non-local projectors over l and type   1
  Highest angular momentum +1 .......   3
  Max number of (l,n)   components ..   3
  Max number of (l,m,n) components ..   3

 Pseudo-Core Charge Info: 
   Number of radial points for pseudo-core charge .. 2501
   XC core-correction treatment (optnlxccc) ........    1
   Radius for pseudo-core charge for each type ..... 

  - Atom type    1 has pseudo-core radius ..  0.0000
  - Atom type    2 has pseudo-core radius ..  6.1720

 Info on the Q-grid used for form factors in spline form: 
   Number of q-points for radial functions ffspl ..   3001
   Number of q-points for vlspl ...................   3001
   vloc is computed in Reciprocal Space
   model core charge treated in real-space

  XC functional for type 1 is 7
  Pseudo valence available: no
  XC functional for type 2 is 1
  Pseudo valence available: no

inwffil: examining the header of disk file trf1_2i_WFK

================================================================================

          - hdr_check: checking restart file header for consistency -


        current calculation                         restart file
        -------------------                         ------------

  calculation expects a wf_planewave    |  input file contains a wf_planewave
. ABINIT  code version 8.10.3           |  ABINIT  code version 8.10.3
. date 20191029 bantot  288 natom    2  |  date 20191028 bantot   40 natom    2
  nkpt  72 nsym  2 ngfft  12,  12,  12  |  nkpt  10 nsym 24 ngfft  12,  12,  12
  ntypat  2 ecut_eff   3.0000000        |  ntypat  2 ecut_eff   3.0000000
  usepaw  0                             |  usepaw  0
  usewvl  0                             |  usewvl  0
  rprimd:                               |  rprimd:
     0.0000000   5.3050000   5.3050000  |     0.0000000   5.3050000   5.3050000
     5.3050000   0.0000000   5.3050000  |     5.3050000   0.0000000   5.3050000
     5.3050000   5.3050000   0.0000000  |     5.3050000   5.3050000   0.0000000

--- !WARNING
src_file: m_hdr.F90
src_line: 4054
message: |
    input nkpt=72 not equal disk file nkpt=10
...


--- !WARNING
src_file: m_hdr.F90
src_line: 4075
message: |
    input nsym=2 not equal disk file nsym=24
...

  typat:                                |  typat:
    1  2                                |    1  2
  so_psp  :                             |  so_psp  :
    1  1                                |    1  1
   znucl:                               |   znucl:
   13.00 33.00                          |   13.00 33.00
  pseudopotential atom type  1:         |  pseudopotential atom type  1:
  pspso   0 pspxc   7                   |  pspso   0 pspxc   7
  pspdat 981214 pspcod    6 zion   3.0  |  pspdat 981214 pspcod    6 zion   3.0
  pseudopotential atom type  2:         |  pseudopotential atom type  2:
  pspso   0 pspxc   1                   |  pspso   0 pspxc   1
  pspdat 940714 pspcod    1 zion   5.0  |  pspdat 940714 pspcod    1 zion   5.0
  xred:                                 |  xred:
     0.0020000   0.0000000   0.0000000  |     0.0000000   0.0000000   0.0000000
     0.2500000   0.2500000   0.2500000  |     0.2500000   0.2500000   0.2500000

--- !WARNING
src_file: m_hdr.F90
src_line: 4595
message: |
    Restart of self-consistent calculation need translated wavefunctions.
...

  Indeed, critical differences between current calculation and
  restart file have been detected in:
        * the number, position, or weight of k-points
        * the format of wavefunctions (istwfk)
================================================================================
-inwffil : will read wavefunctions from disk file trf1_2i_WFK
 initwf: disk file gives npw= 65 nband= 4 for kpt number= 1
 initwf: 4 bands have been initialized from disk
 initwf: disk file gives npw= 74 nband= 4 for kpt number= 2
 initwf: 4 bands have been initialized from disk
 initwf: disk file gives npw= 74 nband= 4 for kpt number= 3
 initwf: 4 bands have been initialized from disk
 initwf: disk file gives npw= 69 nband= 4 for kpt number= 4
 initwf: 4 bands have been initialized from disk
 initwf: disk file gives npw= 74 nband= 4 for kpt number= 5
 initwf: 4 bands have been initialized from disk
 initwf: disk file gives npw= 76 nband= 4 for kpt number= 6
 initwf: 4 bands have been initialized from disk
 initwf: disk file gives npw= 76 nband= 4 for kpt number= 7
 initwf: 4 bands have been initialized from disk
 initwf: disk file gives npw= 77 nband= 4 for kpt number= 8
 initwf: 4 bands have been initialized from disk
 initwf: disk file gives npw= 76 nband= 4 for kpt number= 9
 initwf: 4 bands have been initialized from disk
 initwf: disk file gives npw= 75 nband= 4 for kpt number= 10
 initwf: 4 bands have been initialized from disk
- newkpt: read input wf with ikpt,npw=   1      65, make ikpt,npw=   1      65
- newkpt: read input wf with ikpt,npw=   2      74, make ikpt,npw=   2      74
- newkpt: read input wf with ikpt,npw=   3      74, make ikpt,npw=   3      74
- newkpt: read input wf with ikpt,npw=   4      74, make ikpt,npw=   4      74
- newkpt: read input wf with ikpt,npw=   5      69, make ikpt,npw=   5      69
- newkpt: read input wf with ikpt,npw=   6      74, make ikpt,npw=   6      74
- newkpt: read input wf with ikpt,npw=   7      74, make ikpt,npw=   7      74
- newkpt: read input wf with ikpt,npw=   8      76, make ikpt,npw=   8      76
- newkpt: read input wf with ikpt,npw=   9      74, make ikpt,npw=   9      74
- newkpt: read input wf with ikpt,npw=  10      74, make ikpt,npw=  10      74
- newkpt: read input wf with ikpt,npw=  11      76, make ikpt,npw=  11      76
- newkpt: read input wf with ikpt,npw=  12      76, make ikpt,npw=  12      76
- newkpt: read input wf with ikpt,npw=  13      76, make ikpt,npw=  13      76
- newkpt: read input wf with ikpt,npw=  14      76, make ikpt,npw=  14      76
- newkpt: read input wf with ikpt,npw=  15      77, make ikpt,npw=  15      77
- newkpt: read input wf with ikpt,npw=  16      76, make ikpt,npw=  16      76
- newkpt: read input wf with ikpt,npw=  17      76, make ikpt,npw=  17      76
- newkpt: read input wf with ikpt,npw=  18      74, make ikpt,npw=  18      74
- newkpt: read input wf with ikpt,npw=  19      69, make ikpt,npw=  19      69
- newkpt: read input wf with ikpt,npw=  20      77, make ikpt,npw=  20      77
- newkpt: read input wf with ikpt,npw=  21      76, make ikpt,npw=  21      76
- newkpt: read input wf with ikpt,npw=  22      69, make ikpt,npw=  22      69
- newkpt: read input wf with ikpt,npw=  23      74, make ikpt,npw=  23      74
- newkpt: read input wf with ikpt,npw=  24      76, make ikpt,npw=  24      76
- newkpt: read input wf with ikpt,npw=  25      75, make ikpt,npw=  25      75
- newkpt: read input wf with ikpt,npw=  26      75, make ikpt,npw=  26      75
- newkpt: read input wf with ikpt,npw=  27      76, make ikpt,npw=  27      76
- newkpt: read input wf with ikpt,npw=  28      77, make ikpt,npw=  28      77
- newkpt: read input wf with ikpt,npw=  29      76, make ikpt,npw=  29      76
- newkpt: read input wf with ikpt,npw=  30      76, make ikpt,npw=  30      76
- newkpt: read input wf with ikpt,npw=  31      75, make ikpt,npw=  31      75
- newkpt: read input wf with ikpt,npw=  32      75, make ikpt,npw=  32      75
- newkpt: read input wf with ikpt,npw=  33      76, make ikpt,npw=  33      76
- newkpt: read input wf with ikpt,npw=  34      75, make ikpt,npw=  34      75
- newkpt: read input wf with ikpt,npw=  35      75, make ikpt,npw=  35      75
- newkpt: read input wf with ikpt,npw=  36      76, make ikpt,npw=  36      76
_setup2: Arith. and geom. avg. npw (full set) are      74.469      74.418
mkrho: echo density (plane-wave part only)
 Total charge density [el/Bohr^3]
      Maximum=    9.9715E-02  at reduced coord.    0.5000    0.1667    0.1667
      Minimum=    2.6621E-03  at reduced coord.    0.7500    0.7500    0.7500
   Integrated=    8.0000E+00

================================================================================

 getcut: wavevector=  0.0000  0.0000  0.0000  ngfft=  12  12  12
         ecut(hartree)=      3.000   => boxcut(ratio)=   2.05142

 ITER STEP NUMBER     1
 vtorho : nnsclo_now=2, note that nnsclo,dbl_nnsclo,istep=0 0 1

--- !WARNING
src_file: m_vtorho.F90
src_line: 1651
message: |
    For k-point number 1,
    The minimal occupation factor is  2.000.
    An adequate monitoring of convergence requires it to be  at most 0.01_dp.
    Action: increase slightly the number of bands.
...

 Total charge density [el/Bohr^3]
      Maximum=    9.1649E-02  at reduced coord.    0.1667    0.1667    0.5000
      Minimum=    3.0659E-03  at reduced coord.    0.7500    0.7500    0.7500
   Integrated=    8.0000E+00
  rhotov : is_hybrid_ncpp= F
  rhotov : n3xccc=        1728
 ETOT  1  -9.7620067962792    -9.762E+00 4.653E-05 1.296E-01
 scprqt: <Vxc>= -3.3546420E-01 hartree

Simple mixing update:
  residual square of the potential :   5.3496259445342982E-002
 scfcv_core: previous iteration took 00 [s]

 ITER STEP NUMBER     2
 vtorho : nnsclo_now=2, note that nnsclo,dbl_nnsclo,istep=0 0 2

--- !WARNING
src_file: m_vtorho.F90
src_line: 1651
message: |
    For k-point number 1,
    The minimal occupation factor is  2.000.
    An adequate monitoring of convergence requires it to be  at most 0.01_dp.
    Action: increase slightly the number of bands.
...

 Total charge density [el/Bohr^3]
      Maximum=    9.3205E-02  at reduced coord.    0.1667    0.1667    0.1667
      Minimum=    2.9420E-03  at reduced coord.    0.7500    0.7500    0.7500
   Integrated=    8.0000E+00
  rhotov : is_hybrid_ncpp= F
  rhotov : n3xccc=        1728
 ETOT  2  -9.7626232071216    -6.164E-04 1.337E-10 9.343E-03
 scprqt: <Vxc>= -3.3452720E-01 hartree

 Pulay update with  1 previous iterations:
 mixing of old trial potential : alpha(m:m-4)=  0.804      0.196
 scfcv_core: previous iteration took 00 [s]

 ITER STEP NUMBER     3
 vtorho : nnsclo_now=1, note that nnsclo,dbl_nnsclo,istep=0 0 3

--- !WARNING
src_file: m_vtorho.F90
src_line: 1651
message: |
    For k-point number 1,
    The minimal occupation factor is  2.000.
    An adequate monitoring of convergence requires it to be  at most 0.01_dp.
    Action: increase slightly the number of bands.
...

 Total charge density [el/Bohr^3]
      Maximum=    9.2840E-02  at reduced coord.    0.1667    0.1667    0.1667
      Minimum=    2.9570E-03  at reduced coord.    0.7500    0.7500    0.7500
   Integrated=    8.0000E+00
  rhotov : is_hybrid_ncpp= F
  rhotov : n3xccc=        1728
 ETOT  3  -9.7626735651110    -5.036E-05 5.834E-07 5.079E-05
 scprqt: <Vxc>= -3.3470462E-01 hartree

 Pulay update with  2 previous iterations:
 mixing of old trial potential : alpha(m:m-4)=   1.06     -0.365E-01 -0.227E-01
 scfcv_core: previous iteration took 00 [s]

 ITER STEP NUMBER     4
 vtorho : nnsclo_now=1, note that nnsclo,dbl_nnsclo,istep=0 0 4

--- !WARNING
src_file: m_vtorho.F90
src_line: 1651
message: |
    For k-point number 1,
    The minimal occupation factor is  2.000.
    An adequate monitoring of convergence requires it to be  at most 0.01_dp.
    Action: increase slightly the number of bands.
...

 Total charge density [el/Bohr^3]
      Maximum=    9.2860E-02  at reduced coord.    0.1667    0.1667    0.1667
      Minimum=    2.9528E-03  at reduced coord.    0.7500    0.7500    0.7500
   Integrated=    8.0000E+00
  rhotov : is_hybrid_ncpp= F
  rhotov : n3xccc=        1728
 ETOT  4  -9.7626737261206    -1.610E-07 1.421E-09 1.587E-06
 scprqt: <Vxc>= -3.3469126E-01 hartree

 Pulay update with  3 previous iterations:
 mixing of old trial potential : alpha(m:m-4)=   1.26     -0.264      0.147E-02  0.286E-02
 scfcv_core: previous iteration took 00 [s]

 ITER STEP NUMBER     5
 vtorho : nnsclo_now=1, note that nnsclo,dbl_nnsclo,istep=0 0 5

--- !WARNING
src_file: m_vtorho.F90
src_line: 1651
message: |
    For k-point number 1,
    The minimal occupation factor is  2.000.
    An adequate monitoring of convergence requires it to be  at most 0.01_dp.
    Action: increase slightly the number of bands.
...

 Total charge density [el/Bohr^3]
      Maximum=    9.2862E-02  at reduced coord.    0.1667    0.1667    0.1667
      Minimum=    2.9517E-03  at reduced coord.    0.7500    0.7500    0.7500
   Integrated=    8.0000E+00
  rhotov : is_hybrid_ncpp= F
  rhotov : n3xccc=        1728
 ETOT  5  -9.7626737289438    -2.823E-09 2.576E-11 3.156E-08
 scprqt: <Vxc>= -3.3468975E-01 hartree

 Pulay update with  4 previous iterations:
 mixing of old trial potential : alpha(m:m-4)=   1.17     -0.187      0.148E-01  0.736E-03  0.490E-04
 scfcv_core: previous iteration took 00 [s]

 ITER STEP NUMBER     6
 vtorho : nnsclo_now=1, note that nnsclo,dbl_nnsclo,istep=0 0 6
 Total charge density [el/Bohr^3]
      Maximum=    9.2862E-02  at reduced coord.    0.1667    0.1667    0.1667
      Minimum=    2.9516E-03  at reduced coord.    0.7500    0.7500    0.7500
   Integrated=    8.0000E+00
  rhotov : is_hybrid_ncpp= F
  rhotov : n3xccc=        1728
 ETOT  6  -9.7626737289970    -5.323E-11 1.259E-12 6.044E-10
 scprqt: <Vxc>= -3.3468961E-01 hartree

 Pulay update with  5 previous iterations:
 mixing of old trial potential : alpha(m:m-4)=   1.04     -0.159E-01 -0.319E-01  0.707E-02 -0.523E-04
 scfcv_core: previous iteration took 00 [s]

 ITER STEP NUMBER     7
 vtorho : nnsclo_now=1, note that nnsclo,dbl_nnsclo,istep=0 0 7
 Total charge density [el/Bohr^3]
      Maximum=    9.2862E-02  at reduced coord.    0.1667    0.1667    0.1667
      Minimum=    2.9516E-03  at reduced coord.    0.7500    0.7500    0.7500
   Integrated=    8.0000E+00
  rhotov : is_hybrid_ncpp= F
  rhotov : n3xccc=        1728
 ETOT  7  -9.7626737289984    -1.357E-12 4.494E-14 1.740E-11
 scprqt: <Vxc>= -3.3468961E-01 hartree

 Pulay update with  6 previous iterations:
 mixing of old trial potential : alpha(m:m-4)=   1.24     -0.228     -0.205E-01  0.105E-01 -0.180E-02
 scfcv_core: previous iteration took 00 [s]

 ITER STEP NUMBER     8
 vtorho : nnsclo_now=1, note that nnsclo,dbl_nnsclo,istep=0 0 8
 Total charge density [el/Bohr^3]
      Maximum=    9.2862E-02  at reduced coord.    0.1667    0.1667    0.1667
      Minimum=    2.9516E-03  at reduced coord.    0.7500    0.7500    0.7500
   Integrated=    8.0000E+00
  rhotov : is_hybrid_ncpp= F
  rhotov : n3xccc=        1728
 ETOT  8  -9.7626737289984    -1.599E-14 3.205E-16 1.852E-13
 scprqt: <Vxc>= -3.3468962E-01 hartree

 At SCF step    8       vres2   =  1.85E-13 < tolvrs=  1.00E-12 =>converged.

 Cartesian components of stress tensor (hartree/bohr^3)
  sigma(1 1)=  2.88105377E-04  sigma(3 2)= -8.56701058E-08
  sigma(2 2)=  2.88150112E-04  sigma(3 1)= -5.24132485E-06
  sigma(3 3)=  2.88150112E-04  sigma(2 1)= -5.24132485E-06

 fftdatar_write: About to write data to: trf1_2o_DEN with iomode IO_MODE_FORTRAN
 IO operation completed. cpu_time:       0.0 [s], walltime:       0.0 [s]
================================================================================

 ----iterations are completed or convergence reached----


 === Gap info ===
Not enough states to calculate the band gap.
 Mean square residual over all n,k,spin=   13.771E-17; max=  32.047E-17
   0.0000  0.0000 -0.1250    1  2.32509E-16 kpt; spin; max resid(k); each band:
  2.33E-16 5.54E-17 1.67E-16 1.12E-16
   0.0000  0.0000 -0.3750    1  2.62444E-16 kpt; spin; max resid(k); each band:
  2.62E-16 7.19E-17 1.66E-16 1.24E-16
   0.0000  0.1250 -0.2500    1  3.05632E-16 kpt; spin; max resid(k); each band:
  2.81E-16 4.00E-17 7.94E-17 3.06E-16
   0.1250  0.0000 -0.2500    1  3.05218E-16 kpt; spin; max resid(k); each band:
  3.05E-16 2.22E-17 2.45E-16 1.08E-16
   0.1250  0.1250 -0.1250    1  2.70553E-16 kpt; spin; max resid(k); each band:
  2.71E-16 2.79E-17 3.57E-17 2.65E-16
   0.2500  0.0000 -0.1250    1  2.94827E-16 kpt; spin; max resid(k); each band:
  2.95E-16 1.34E-16 1.42E-16 1.16E-16
   0.0000  0.1250  0.5000    1  3.02889E-16 kpt; spin; max resid(k); each band:
  2.63E-16 9.66E-17 8.47E-17 3.03E-16
   0.0000  0.2500 -0.3750    1  2.98444E-16 kpt; spin; max resid(k); each band:
  2.62E-16 5.64E-17 1.13E-16 2.98E-16
   0.1250  0.0000  0.5000    1  2.29598E-16 kpt; spin; max resid(k); each band:
  2.30E-16 9.11E-17 1.90E-16 9.60E-17
   0.1250  0.1250 -0.3750    1  2.48174E-16 kpt; spin; max resid(k); each band:
  2.45E-16 8.66E-17 2.48E-16 6.74E-17
   0.1250  0.2500 -0.2500    1  2.50751E-16 kpt; spin; max resid(k); each band:
  2.51E-16 6.42E-17 1.74E-16 2.44E-16
   0.1250  0.3750 -0.1250    1  2.82080E-16 kpt; spin; max resid(k); each band:
  2.48E-16 5.36E-17 8.17E-17 2.82E-16
   0.2500  0.0000 -0.3750    1  2.49152E-16 kpt; spin; max resid(k); each band:
  2.49E-16 3.77E-17 1.89E-16 9.62E-17
   0.2500  0.1250 -0.2500    1  3.02701E-16 kpt; spin; max resid(k); each band:
  2.65E-16 4.39E-17 3.03E-16 5.08E-17
   0.2500  0.2500 -0.1250    1  2.47938E-16 kpt; spin; max resid(k); each band:
  2.48E-16 6.17E-17 1.94E-16 7.16E-17
   0.3750  0.0000 -0.2500    1  2.37846E-16 kpt; spin; max resid(k); each band:
  2.38E-16 1.65E-16 1.38E-16 9.97E-17
   0.3750  0.1250 -0.1250    1  2.60256E-16 kpt; spin; max resid(k); each band:
  2.60E-16 1.61E-16 1.16E-16 1.20E-16
   0.5000  0.0000 -0.1250    1  2.25514E-16 kpt; spin; max resid(k); each band:
  2.26E-16 1.88E-16 8.89E-17 1.08E-16
   0.0000  0.1250  0.2500    1  2.74043E-16 kpt; spin; max resid(k); each band:
  2.13E-16 1.08E-16 2.74E-16 4.04E-17
   0.0000  0.2500  0.3750    1  2.84970E-16 kpt; spin; max resid(k); each band:
  2.06E-16 1.28E-16 3.91E-17 2.85E-16
   0.0000  0.3750  0.5000    1  2.82602E-16 kpt; spin; max resid(k); each band:
  1.99E-16 1.40E-16 3.33E-17 2.83E-16
   0.1250  0.0000  0.2500    1  1.63143E-16 kpt; spin; max resid(k); each band:
  1.63E-16 8.99E-17 1.11E-16 8.63E-17
   0.1250  0.1250  0.3750    1  1.77700E-16 kpt; spin; max resid(k); each band:
  1.29E-16 1.60E-16 1.78E-16 5.75E-17
   0.1250  0.2500  0.5000    1  1.97757E-16 kpt; spin; max resid(k); each band:
  1.38E-16 1.82E-16 1.98E-16 1.28E-16
   0.1250  0.3750 -0.3750    1  2.64668E-16 kpt; spin; max resid(k); each band:
  1.61E-16 1.52E-16 1.30E-16 2.65E-16
   0.1250  0.5000 -0.2500    1  2.98111E-16 kpt; spin; max resid(k); each band:
  2.26E-16 8.10E-17 1.08E-16 2.98E-16
   0.1250 -0.3750 -0.1250    1  2.86180E-16 kpt; spin; max resid(k); each band:
  2.86E-16 5.43E-17 1.87E-16 1.89E-16
   0.2500  0.0000  0.3750    1  1.60612E-16 kpt; spin; max resid(k); each band:
  1.61E-16 1.06E-16 6.59E-17 9.27E-17
   0.2500  0.1250  0.5000    1  2.10160E-16 kpt; spin; max resid(k); each band:
  1.26E-16 1.46E-16 2.10E-16 4.55E-17
   0.2500  0.2500 -0.3750    1  2.13275E-16 kpt; spin; max resid(k); each band:
  1.41E-16 1.38E-16 2.13E-16 7.11E-17
   0.2500  0.3750 -0.2500    1  2.31285E-16 kpt; spin; max resid(k); each band:
  1.64E-16 1.23E-16 2.31E-16 1.60E-16
   0.2500  0.5000 -0.1250    1  2.09513E-16 kpt; spin; max resid(k); each band:
  2.10E-16 6.49E-17 9.05E-17 2.06E-16
   0.3750  0.0000  0.5000    1  1.74733E-16 kpt; spin; max resid(k); each band:
  1.75E-16 1.49E-16 7.31E-17 8.85E-17
   0.3750  0.1250 -0.3750    1  1.63135E-16 kpt; spin; max resid(k); each band:
  1.63E-16 1.22E-16 1.27E-16 8.87E-17
   0.3750  0.2500 -0.2500    1  2.37942E-16 kpt; spin; max resid(k); each band:
  1.80E-16 1.27E-16 2.38E-16 7.69E-17
   0.3750  0.3750 -0.1250    1  1.92249E-16 kpt; spin; max resid(k); each band:
  1.92E-16 1.44E-16 1.41E-16 7.16E-17
   0.5000  0.0000 -0.3750    1  1.89579E-16 kpt; spin; max resid(k); each band:
  1.90E-16 1.76E-16 8.00E-17 8.96E-17
   0.5000  0.1250 -0.2500    1  2.12437E-16 kpt; spin; max resid(k); each band:
  2.12E-16 1.75E-16 1.15E-16 1.22E-16
  -0.3750  0.0000 -0.2500    1  2.14007E-16 kpt; spin; max resid(k); each band:
  2.04E-16 2.14E-16 6.19E-17 9.57E-17
  -0.2500  0.0000 -0.1250    1  2.17315E-16 kpt; spin; max resid(k); each band:
  2.13E-16 2.17E-16 1.06E-16 3.41E-17
   0.1250  0.0000  0.0000    1  2.30396E-16 kpt; spin; max resid(k); each band:
  2.30E-16 1.74E-16 1.23E-16 1.01E-18
   0.1250  0.1250  0.1250    1  1.49578E-16 kpt; spin; max resid(k); each band:
  1.50E-16 9.33E-17 2.48E-18 6.70E-17
   0.1250  0.2500  0.2500    1  1.11329E-16 kpt; spin; max resid(k); each band:
  9.88E-17 8.92E-17 3.80E-18 1.11E-16
   0.1250  0.3750  0.3750    1  1.55124E-16 kpt; spin; max resid(k); each band:
  9.73E-17 1.22E-16 1.55E-16 3.35E-18
   0.1250  0.5000  0.5000    1  2.43440E-16 kpt; spin; max resid(k); each band:
  1.25E-16 1.77E-16 2.43E-16 2.38E-18
   0.1250 -0.3750 -0.3750    1  3.02486E-16 kpt; spin; max resid(k); each band:
  1.97E-16 1.18E-16 3.02E-16 2.11E-18
   0.1250 -0.2500 -0.2500    1  2.93338E-16 kpt; spin; max resid(k); each band:
  2.67E-16 6.31E-17 2.93E-16 2.26E-18
   0.1250 -0.1250 -0.1250    1  2.89475E-16 kpt; spin; max resid(k); each band:
  2.89E-16 8.49E-17 2.71E-18 2.31E-16
   0.2500  0.1250  0.2500    1  1.36269E-16 kpt; spin; max resid(k); each band:
  1.36E-16 1.27E-16 4.77E-17 5.74E-17
   0.2500  0.2500  0.3750    1  9.34831E-17 kpt; spin; max resid(k); each band:
  8.60E-17 9.35E-17 6.03E-17 5.10E-17
 outwf : prtvol=0 or 1, do not print more k-points.


 outwf: write wavefunction to file trf1_2o_WFK, with iomode -1
 outwf with iomode: -1, cpu_time:     0.00[s], walltime:     0.00 [s]
 prteigrs : about to open file trf1_2o_EIG
 Fermi (or HOMO) energy (hartree) =   0.07959   Average Vxc (hartree)=  -0.33469
 Eigenvalues (hartree) for nkpt=  72  k points:
 kpt#   1, nband=  4, wtk=  0.01563, kpt=  0.0000  0.0000 -0.1250 (reduced coord)
  -0.34831    0.03298    0.07815    0.07953
 kpt#   2, nband=  4, wtk=  0.01563, kpt=  0.0000  0.0000 -0.3750 (reduced coord)
  -0.31098   -0.10010    0.05497    0.05631
 kpt#   3, nband=  4, wtk=  0.01563, kpt=  0.0000  0.1250 -0.2500 (reduced coord)
  -0.32073   -0.06308    0.01993    0.06500
 kpt#   4, nband=  4, wtk=  0.01563, kpt=  0.1250  0.0000 -0.2500 (reduced coord)
  -0.32076   -0.06289    0.02020    0.06441
 kpt#   5, nband=  4, wtk=  0.01563, kpt=  0.1250  0.1250 -0.1250 (reduced coord)
  -0.33315   -0.02125    0.05056    0.05183
 kpt#   6, nband=  4, wtk=  0.01563, kpt=  0.2500  0.0000 -0.1250 (reduced coord)
  -0.32079   -0.06251    0.01982    0.06450
 kpt#   7, nband=  4, wtk=  0.01563, kpt=  0.0000  0.1250  0.5000 (reduced coord)
  -0.29748   -0.11672    0.01921    0.04188
 kpt#   8, nband=  4, wtk=  0.01563, kpt=  0.0000  0.2500 -0.3750 (reduced coord)
  -0.28878   -0.10539   -0.03600    0.03150
 kpt#   9, nband=  4, wtk=  0.01563, kpt=  0.1250  0.0000  0.5000 (reduced coord)
  -0.29748   -0.11676    0.01974    0.04136
 kpt#  10, nband=  4, wtk=  0.01563, kpt=  0.1250  0.1250 -0.3750 (reduced coord)
  -0.29748   -0.11669    0.01871    0.04236
 kpt#  11, nband=  4, wtk=  0.01563, kpt=  0.1250  0.2500 -0.2500 (reduced coord)
  -0.29952   -0.09290   -0.01331    0.03139
 kpt#  12, nband=  4, wtk=  0.01563, kpt=  0.1250  0.3750 -0.1250 (reduced coord)
  -0.29952   -0.09305   -0.01269    0.03088
 kpt#  13, nband=  4, wtk=  0.01563, kpt=  0.2500  0.0000 -0.3750 (reduced coord)
  -0.28882   -0.10529   -0.03568    0.03108
 kpt#  14, nband=  4, wtk=  0.01563, kpt=  0.2500  0.1250 -0.2500 (reduced coord)
  -0.29956   -0.09275   -0.01297    0.03084
 kpt#  15, nband=  4, wtk=  0.01563, kpt=  0.2500  0.2500 -0.1250 (reduced coord)
  -0.30793   -0.07137    0.00746    0.02180
 kpt#  16, nband=  4, wtk=  0.01563, kpt=  0.3750  0.0000 -0.2500 (reduced coord)
  -0.28889   -0.10485   -0.03609    0.03112
 kpt#  17, nband=  4, wtk=  0.01563, kpt=  0.3750  0.1250 -0.1250 (reduced coord)
  -0.29961   -0.09244   -0.01298    0.03061
 kpt#  18, nband=  4, wtk=  0.01563, kpt=  0.5000  0.0000 -0.1250 (reduced coord)
  -0.29761   -0.11616    0.01916    0.04150
 kpt#  19, nband=  4, wtk=  0.01563, kpt=  0.0000  0.1250  0.2500 (reduced coord)
  -0.33314   -0.02144    0.05007    0.05257
 kpt#  20, nband=  4, wtk=  0.01563, kpt=  0.0000  0.2500  0.3750 (reduced coord)
  -0.30792   -0.07156    0.00804    0.02144
 kpt#  21, nband=  4, wtk=  0.01563, kpt=  0.0000  0.3750  0.5000 (reduced coord)
  -0.28309   -0.10668   -0.01759    0.00609
 kpt#  22, nband=  4, wtk=  0.01563, kpt=  0.1250  0.0000  0.2500 (reduced coord)
  -0.33313   -0.02162    0.04967    0.05321
 kpt#  23, nband=  4, wtk=  0.01563, kpt=  0.1250  0.1250  0.3750 (reduced coord)
  -0.32069   -0.06327    0.01969    0.06557
 kpt#  24, nband=  4, wtk=  0.01563, kpt=  0.1250  0.2500  0.5000 (reduced coord)
  -0.29948   -0.09313   -0.01333    0.03168
 kpt#  25, nband=  4, wtk=  0.01563, kpt=  0.1250  0.3750 -0.3750 (reduced coord)
  -0.28169   -0.10290   -0.03925   -0.00138
 kpt#  26, nband=  4, wtk=  0.01563, kpt=  0.1250  0.5000 -0.2500 (reduced coord)
  -0.28173   -0.10275   -0.03891   -0.00188
 kpt#  27, nband=  4, wtk=  0.01563, kpt=  0.1250 -0.3750 -0.1250 (reduced coord)
  -0.29956   -0.09282   -0.01265    0.03058
 kpt#  28, nband=  4, wtk=  0.01563, kpt=  0.2500  0.0000  0.3750 (reduced coord)
  -0.30790   -0.07174    0.00863    0.02107
 kpt#  29, nband=  4, wtk=  0.01563, kpt=  0.2500  0.1250  0.5000 (reduced coord)
  -0.29948   -0.09320   -0.01303    0.03142
 kpt#  30, nband=  4, wtk=  0.01563, kpt=  0.2500  0.2500 -0.3750 (reduced coord)
  -0.28873   -0.10549   -0.03632    0.03190
 kpt#  31, nband=  4, wtk=  0.01563, kpt=  0.2500  0.3750 -0.2500 (reduced coord)
  -0.28169   -0.10281   -0.03952   -0.00122
 kpt#  32, nband=  4, wtk=  0.01563, kpt=  0.2500  0.5000 -0.1250 (reduced coord)
  -0.28172   -0.10283   -0.03864   -0.00205
 kpt#  33, nband=  4, wtk=  0.01563, kpt=  0.3750  0.0000  0.5000 (reduced coord)
  -0.28309   -0.10673   -0.01719    0.00577
 kpt#  34, nband=  4, wtk=  0.01563, kpt=  0.3750  0.1250 -0.3750 (reduced coord)
  -0.28170   -0.10291   -0.03881   -0.00179
 kpt#  35, nband=  4, wtk=  0.01563, kpt=  0.3750  0.2500 -0.2500 (reduced coord)
  -0.28171   -0.10273   -0.03935   -0.00147
 kpt#  36, nband=  4, wtk=  0.01563, kpt=  0.3750  0.3750 -0.1250 (reduced coord)
  -0.28310   -0.10661   -0.01799    0.00640
 kpt#  37, nband=  4, wtk=  0.01563, kpt=  0.5000  0.0000 -0.3750 (reduced coord)
  -0.28312   -0.10655   -0.01738    0.00578
 kpt#  38, nband=  4, wtk=  0.01563, kpt=  0.5000  0.1250 -0.2500 (reduced coord)
  -0.28178   -0.10247   -0.03894   -0.00208
 kpt#  39, nband=  4, wtk=  0.01563, kpt= -0.3750  0.0000 -0.2500 (reduced coord)
  -0.30795   -0.07127    0.00808    0.02111
 kpt#  40, nband=  4, wtk=  0.01563, kpt= -0.2500  0.0000 -0.1250 (reduced coord)
  -0.33316   -0.02102    0.04973    0.05246
 kpt#  41, nband=  4, wtk=  0.00781, kpt=  0.1250  0.0000  0.0000 (reduced coord)
  -0.34832    0.03358    0.07809    0.07889
 kpt#  42, nband=  4, wtk=  0.00781, kpt=  0.1250  0.1250  0.1250 (reduced coord)
  -0.34830    0.03239    0.07880    0.07959
 kpt#  43, nband=  4, wtk=  0.00781, kpt=  0.1250  0.2500  0.2500 (reduced coord)
  -0.33310   -0.02203    0.05008    0.05325
 kpt#  44, nband=  4, wtk=  0.00781, kpt=  0.1250  0.3750  0.3750 (reduced coord)
  -0.30787   -0.07203    0.00859    0.02139
 kpt#  45, nband=  4, wtk=  0.00781, kpt=  0.1250  0.5000  0.5000 (reduced coord)
  -0.28306   -0.10686   -0.01739    0.00607
 kpt#  46, nband=  4, wtk=  0.00781, kpt=  0.1250 -0.3750 -0.3750 (reduced coord)
  -0.28312   -0.10649   -0.01778    0.00609
 kpt#  47, nband=  4, wtk=  0.00781, kpt=  0.1250 -0.2500 -0.2500 (reduced coord)
  -0.30796   -0.07109    0.00751    0.02147
 kpt#  48, nband=  4, wtk=  0.00781, kpt=  0.1250 -0.1250 -0.1250 (reduced coord)
  -0.33318   -0.02084    0.05021    0.05174
 kpt#  49, nband=  4, wtk=  0.01563, kpt=  0.2500  0.1250  0.2500 (reduced coord)
  -0.33312   -0.02185    0.05052    0.05256
 kpt#  50, nband=  4, wtk=  0.01563, kpt=  0.2500  0.2500  0.3750 (reduced coord)
  -0.32066   -0.06364    0.02007    0.06548
 prteigrs : prtvol=0 or 1, do not print more k-points.

 Total charge density [el/Bohr^3]
      Maximum=    9.2862E-02  at reduced coord.    0.1667    0.1667    0.1667
 Next maximum=    9.2540E-02  at reduced coord.    0.1667    0.1667    0.5000
      Minimum=    2.9516E-03  at reduced coord.    0.7500    0.7500    0.7500
 Next minimum=    3.3833E-03  at reduced coord.    0.8333    0.7500    0.7500
   Integrated=    8.0000E+00

 Cartesian components of stress tensor (hartree/bohr^3)
  sigma(1 1)=  2.88105377E-04  sigma(3 2)= -8.56701058E-08
  sigma(2 2)=  2.88150112E-04  sigma(3 1)= -5.24132485E-06
  sigma(3 3)=  2.88150112E-04  sigma(2 1)= -5.24132485E-06

-Cartesian components of stress tensor (GPa)         [Pressure= -8.4772E+00 GPa]
- sigma(1 1)=  8.47635141E+00  sigma(3 2)= -2.52050111E-03
- sigma(2 2)=  8.47766755E+00  sigma(3 1)= -1.54205075E-01
- sigma(3 3)=  8.47766755E+00  sigma(2 1)= -1.54205075E-01

== END DATASET(S) ==============================================================
================================================================================
  
 -outvars: echo values of variables after computation  --------
 
 These variables are accessible in NetCDF format (trf1_2o_OUT.nc)

            acell      1.0610000000E+01  1.0610000000E+01  1.0610000000E+01 Bohr
              amu      2.69815390E+01  7.49215900E+01
           diemac      9.00000000E+00
             ecut      3.00000000E+00 Hartree
           etotal     -9.7626737290E+00
            fcart     -1.6845600817E-05 -9.4403841508E-04 -9.4403841508E-04
                       1.6845600817E-05  9.4403841508E-04  9.4403841508E-04
-          fftalg         312
           irdwfk           1
              kpt      0.00000000E+00  0.00000000E+00 -1.25000000E-01
                       0.00000000E+00  0.00000000E+00 -3.75000000E-01
                       0.00000000E+00  1.25000000E-01 -2.50000000E-01
                       1.25000000E-01  0.00000000E+00 -2.50000000E-01
                       1.25000000E-01  1.25000000E-01 -1.25000000E-01
                       2.50000000E-01  0.00000000E+00 -1.25000000E-01
                       0.00000000E+00  1.25000000E-01  5.00000000E-01
                       0.00000000E+00  2.50000000E-01 -3.75000000E-01
                       1.25000000E-01  0.00000000E+00  5.00000000E-01
                       1.25000000E-01  1.25000000E-01 -3.75000000E-01
                       1.25000000E-01  2.50000000E-01 -2.50000000E-01
                       1.25000000E-01  3.75000000E-01 -1.25000000E-01
                       2.50000000E-01  0.00000000E+00 -3.75000000E-01
                       2.50000000E-01  1.25000000E-01 -2.50000000E-01
                       2.50000000E-01  2.50000000E-01 -1.25000000E-01
                       3.75000000E-01  0.00000000E+00 -2.50000000E-01
                       3.75000000E-01  1.25000000E-01 -1.25000000E-01
                       5.00000000E-01  0.00000000E+00 -1.25000000E-01
                       0.00000000E+00  1.25000000E-01  2.50000000E-01
                       0.00000000E+00  2.50000000E-01  3.75000000E-01
                       0.00000000E+00  3.75000000E-01  5.00000000E-01
                       1.25000000E-01  0.00000000E+00  2.50000000E-01
                       1.25000000E-01  1.25000000E-01  3.75000000E-01
                       1.25000000E-01  2.50000000E-01  5.00000000E-01
                       1.25000000E-01  3.75000000E-01 -3.75000000E-01
                       1.25000000E-01  5.00000000E-01 -2.50000000E-01
                       1.25000000E-01 -3.75000000E-01 -1.25000000E-01
                       2.50000000E-01  0.00000000E+00  3.75000000E-01
                       2.50000000E-01  1.25000000E-01  5.00000000E-01
                       2.50000000E-01  2.50000000E-01 -3.75000000E-01
                       2.50000000E-01  3.75000000E-01 -2.50000000E-01
                       2.50000000E-01  5.00000000E-01 -1.25000000E-01
                       3.75000000E-01  0.00000000E+00  5.00000000E-01
                       3.75000000E-01  1.25000000E-01 -3.75000000E-01
                       3.75000000E-01  2.50000000E-01 -2.50000000E-01
                       3.75000000E-01  3.75000000E-01 -1.25000000E-01
                       5.00000000E-01  0.00000000E+00 -3.75000000E-01
                       5.00000000E-01  1.25000000E-01 -2.50000000E-01
                      -3.75000000E-01  0.00000000E+00 -2.50000000E-01
                      -2.50000000E-01  0.00000000E+00 -1.25000000E-01
                       1.25000000E-01  0.00000000E+00  0.00000000E+00
                       1.25000000E-01  1.25000000E-01  1.25000000E-01
                       1.25000000E-01  2.50000000E-01  2.50000000E-01
                       1.25000000E-01  3.75000000E-01  3.75000000E-01
                       1.25000000E-01  5.00000000E-01  5.00000000E-01
                       1.25000000E-01 -3.75000000E-01 -3.75000000E-01
                       1.25000000E-01 -2.50000000E-01 -2.50000000E-01
                       1.25000000E-01 -1.25000000E-01 -1.25000000E-01
                       2.50000000E-01  1.25000000E-01  2.50000000E-01
                       2.50000000E-01  2.50000000E-01  3.75000000E-01
                       outvar_i_n : Printing only first  50 k-points.
         kptrlatt       -4    4    4      4   -4    4      4    4   -4
          kptrlen      4.24400000E+01
P           mkmem          36
            natom           2
            nband           4
            ngfft          12      12      12
             nkpt          72
            nstep          15
             nsym           2
           ntypat           2
              occ      2.000000  2.000000  2.000000  2.000000
            rprim      0.0000000000E+00  5.0000000000E-01  5.0000000000E-01
                       5.0000000000E-01  0.0000000000E+00  5.0000000000E-01
                       5.0000000000E-01  5.0000000000E-01  0.0000000000E+00
           shiftk      5.00000000E-01  5.00000000E-01  5.00000000E-01
          spgroup           8
           strten      2.8810537709E-04  2.8815011158E-04  2.8815011158E-04
                      -8.5670105768E-08 -5.2413248533E-06 -5.2413248533E-06
           symrel      1  0  0   0  1  0   0  0  1       1  0  0   0  0  1   0  1  0
           tolvrs      1.00000000E-12
            typat      1  2
              wtk        0.01563    0.01563    0.01563    0.01563    0.01563    0.01563
                         0.01563    0.01563    0.01563    0.01563    0.01563    0.01563
                         0.01563    0.01563    0.01563    0.01563    0.01563    0.01563
                         0.01563    0.01563    0.01563    0.01563    0.01563    0.01563
                         0.01563    0.01563    0.01563    0.01563    0.01563    0.01563
                         0.01563    0.01563    0.01563    0.01563    0.01563    0.01563
                         0.01563    0.01563    0.01563    0.01563    0.00781    0.00781
                         0.00781    0.00781    0.00781    0.00781    0.00781    0.00781
                         0.01563    0.01563
                       outvars : Printing only first  50 k-points.
           xangst      0.0000000000E+00  5.6145701831E-03  5.6145701831E-03
                       1.4036425458E+00  1.4036425458E+00  1.4036425458E+00
            xcart      0.0000000000E+00  1.0610000000E-02  1.0610000000E-02
                       2.6525000000E+00  2.6525000000E+00  2.6525000000E+00
             xred      2.0000000000E-03  0.0000000000E+00  0.0000000000E+00
                       2.5000000000E-01  2.5000000000E-01  2.5000000000E-01
            znucl       13.00000   33.00000

================================================================================
  

================================================================================

 Suggested references for the acknowledgment of ABINIT usage.

 The users of ABINIT have little formal obligations with respect to the ABINIT group
 (those specified in the GNU General Public License, http://www.gnu.org/copyleft/gpl.txt).
 However, it is common practice in the scientific literature,
 to acknowledge the efforts of people that have made the research possible.
 In this spirit, please find below suggested citations of work written by ABINIT developers,
 corresponding to implementations inside of ABINIT that you have used in the present run.
 Note also that it will be of great value to readers of publications presenting these results,
 to read papers enabling them to understand the theoretical formalism and details
 of the ABINIT implementation.
 For information on why they are suggested, see also https://docs.abinit.org/theory/acknowledgments.
-
- [1] Recent developments in the ABINIT software package.
- Computer Phys. Comm. 205, 106 (2016).
- X.Gonze, F.Jollet, F.Abreu Araujo, D.Adams, B.Amadon, T.Applencourt,
- C.Audouze, J.-M.Beuken, J.Bieder, A.Bokhanchuk, E.Bousquet, F.Bruneval
- D.Caliste, M.Cote, F.Dahm, F.Da Pieve, M.Delaveau, M.Di Gennaro,
- B.Dorado, C.Espejo, G.Geneste, L.Genovese, A.Gerossier, M.Giantomassi,
- Y.Gillet, D.R.Hamann, L.He, G.Jomard, J.Laflamme Janssen, S.Le Roux,
- A.Levitt, A.Lherbier, F.Liu, I.Lukacevic, A.Martin, C.Martins,
- M.J.T.Oliveira, S.Ponce, Y.Pouillon, T.Rangel, G.-M.Rignanese,
- A.H.Romero, B.Rousseau, O.Rubel, A.A.Shukri, M.Stankovski, M.Torrent,
- M.J.Van Setten, B.Van Troeye, M.J.Verstraete, D.Waroquier, J.Wiktor,
- B.Xu, A.Zhou, J.W.Zwanziger.
- Comment : the fourth generic paper describing the ABINIT project.
- Note that a version of this paper, that is not formatted for Computer Phys. Comm. 
- is available at https://www.abinit.org/about/ABINIT16.pdf .
- The licence allows the authors to put it on the Web.
- DOI and bibtex : see https://docs.abinit.org/theory/bibliography/#gonze2016
-
- [2] Ab initio pseudopotentials for electronic structure calculations of poly-atomic systems, 
- using density-functional theory.
- M. Fuchs, M. Scheffler, Comput. Phys. Commun. 119, 67 (1999).
- Comment : Some pseudopotential generated using the FHI code were used.
- DOI and bibtex : see https://docs.abinit.org/theory/bibliography/#fuchs1999
-
- [3] ABINIT : First-principles approach of materials and nanosystem properties.
- Computer Phys. Comm. 180, 2582-2615 (2009).
- X. Gonze, B. Amadon, P.-M. Anglade, J.-M. Beuken, F. Bottin, P. Boulanger, F. Bruneval,
- D. Caliste, R. Caracas, M. Cote, T. Deutsch, L. Genovese, Ph. Ghosez, M. Giantomassi
- S. Goedecker, D.R. Hamann, P. Hermet, F. Jollet, G. Jomard, S. Leroux, M. Mancini, S. Mazevet,
- M.J.T. Oliveira, G. Onida, Y. Pouillon, T. Rangel, G.-M. Rignanese, D. Sangalli, R. Shaltaf,
- M. Torrent, M.J. Verstraete, G. Zerah, J.W. Zwanziger
- Comment : the third generic paper describing the ABINIT project.
- Note that a version of this paper, that is not formatted for Computer Phys. Comm. 
- is available at https://www.abinit.org/about/ABINIT_CPC_v10.pdf .
- The licence allows the authors to put it on the Web.
- DOI and bibtex : see https://docs.abinit.org/theory/bibliography/#gonze2009
-
- [4] A brief introduction to the ABINIT software package.
- Z. Kristallogr. 220, 558-562 (2005).
- X. Gonze, G.-M. Rignanese, M. Verstraete, J.-M. Beuken, Y. Pouillon, R. Caracas, F. Jollet,
- M. Torrent, G. Zerah, M. Mikami, Ph. Ghosez, M. Veithen, J.-Y. Raty, V. Olevano, F. Bruneval,
- L. Reining, R. Godby, G. Onida, D.R. Hamann, and D.C. Allan.
- Comment : the second generic paper describing the ABINIT project. Note that this paper
- should be cited especially if you are using the GW part of ABINIT, as several authors
- of this part are not in the list of authors of the first or third paper.
- The .pdf of the latter paper is available at https://www.abinit.org/about/zfk_0505-06_558-562.pdf.
- Note that it should not redistributed (Copyright by Oldenburg Wissenshaftverlag,
- the licence allows the authors to put it on the Web).
- DOI and bibtex : see https://docs.abinit.org/theory/bibliography/#gonze2005
-
- And optionally:
-
- [5] First-principles computation of material properties : the ABINIT software project. 
- X. Gonze, J.-M. Beuken, R. Caracas, F. Detraux, M. Fuchs, G.-M. Rignanese, L. Sindic,
- M. Verstraete, G. Zerah, F. Jollet, M. Torrent, A. Roy, M. Mikami, Ph. Ghosez, J.-Y. Raty, D.C. Allan.
- Computational Materials Science 25, 478-492 (2002). http://dx.doi.org/10.1016/S0927-0256(02)00325-7
- Comment : the original paper describing the ABINIT project.
- DOI and bibtex : see https://docs.abinit.org/theory/bibliography/#gonze2002
 Proc.   0 individual time (sec): cpu=          1.1  wall=          1.1

 Calculation completed.
.Delivered   0 WARNINGs and   0 COMMENTs to log file.

--- !FinalSummary
program: abinit
version: 8.10.3
start_datetime: Tue Oct 29 12:04:07 2019
end_datetime: Tue Oct 29 12:04:08 2019
overall_cpu_time:           2.2
overall_wall_time:           2.2
exit_requested_by_user: no 
timelimit: 0
pseudos: 
    Al  : 45177dc68580e70ffd690f1e65e9b174
    As  : 56f075499613b4e8e69cc77bd15edc6d
usepaw: 0
mpi_procs: 2
omp_threads: 1
num_warnings: 0
num_comments: 0
...
