  ABINIT 8.11.13
  
  Give name for formatted input file: 
ddb.in
  Give name for formatted output file:
ddb.out
  Give root name for generic input files:
ddbi
  Give root name for generic output files:
ddbo
  Give root name for generic temporary files:
ddb
 
--- !COMMENT
src_file: m_dtfil.F90
src_line: 1450
message: |
    Output file: ddb.out already exists.
...
 
 
--- !COMMENT
src_file: m_dtfil.F90
src_line: 1474
message: |
    Renaming old ddb.out to ddb.out0002
...
 

.Version 8.11.13 of ABINIT 
.(MPI version, prepared for a x86_64_linux_intel14.0 computer) 

.Copyright (C) 1998-2019 ABINIT group . 
 ABINIT comes with ABSOLUTELY NO WARRANTY.
 It is free software, and you are welcome to redistribute it
 under certain conditions (GNU General Public License,
 see ~abinit/COPYING or http://www.gnu.org/copyleft/gpl.txt).

 ABINIT is a project of the Universite Catholique de Louvain,
 Corning Inc. and other collaborators, see ~abinit/doc/developers/contributors.txt .
 Please read https://docs.abinit.org/theory/acknowledgments for suggested
 acknowledgments of the ABINIT effort.
 For more information, see https://www.abinit.org .

.Starting date : Thu 23 Jan 2020.
- ( at 12h01 )
  
 
 ++++++++++++++++++++++++++++++++++++++++++++++++++++++++++++++++++++++++++++++
 
 === Build Information === 
  Version       : 8.11.13
  Build target  : x86_64_linux_intel14.0
  Build date    : 20191206
 
 === Compiler Suite === 
  C compiler       : intel14.0
  C++ compiler     : gnu14.0
  Fortran compiler : intel14.0
  CFLAGS           :  -g -O2
  CXXFLAGS         :  -g -O2 -mtune=native -march=native
  FCFLAGS          :  -g -extend-source -nofpscomp
  FC_LDFLAGS       :    -static-intel -static-libgcc
 
 === Optimizations === 
  Debug level        : basic
  Optimization level : standard
  Architecture       : intel_xeon
 
 === Multicore === 
  Parallel build : yes
  Parallel I/O   : yes
  openMP support : no
  GPU support    : no
 
 === Connectors / Fallbacks === 
  Connectors on : yes
  Fallbacks on  : yes
  DFT flavor    : libxc-fallback
  FFT flavor    : fftw3
  LINALG flavor : mkl
  TIMER flavor  : abinit
  TRIO flavor   : netcdf
 
 === Experimental features === 
  Exports             : no
  GW double-precision : yes
 
 ++++++++++++++++++++++++++++++++++++++++++++++++++++++++++++++++++++++++++++++
 

 ++++++++++++++++++++++++++++++++++++++++++++++++++++++++++++++++++++++++++++++
 Default optimizations:
   -O3


 Optimizations for 43_ptgroups:
   -O0


 ++++++++++++++++++++++++++++++++++++++++++++++++++++++++++++++++++++++++++++++


 ++++++++++++++++++++++++++++++++++++++++++++++++++++++++++++++++++++++++++++++
 CPP options activated during the build:

                  CC_INTEL                   CXX_GNU                  FC_INTEL
 
 HAVE_FC_ALLOCATABLE_DT...             HAVE_FC_ASYNC  HAVE_FC_COMMAND_ARGUMENT
 
        HAVE_FC_CONTIGUOUS           HAVE_FC_CPUTIME             HAVE_FC_ETIME
 
              HAVE_FC_EXIT             HAVE_FC_FLUSH             HAVE_FC_GAMMA
 
            HAVE_FC_GETENV            HAVE_FC_GETPID   HAVE_FC_IEEE_ARITHMETIC
 
   HAVE_FC_IEEE_EXCEPTIONS             HAVE_FC_IOMSG     HAVE_FC_ISO_C_BINDING
 
  HAVE_FC_ISO_FORTRAN_2008        HAVE_FC_LONG_LINES        HAVE_FC_MOVE_ALLOC
 
  HAVE_FC_ON_THE_FLY_SHAPE           HAVE_FC_PRIVATE         HAVE_FC_PROTECTED
 
           HAVE_FC_SHIFTLR         HAVE_FC_STREAM_IO            HAVE_FC_SYSTEM
 
                  HAVE_FFT            HAVE_FFT_FFTW3              HAVE_FFT_MPI
 
           HAVE_FFT_SERIAL               HAVE_GW_DPC        HAVE_LIBPAW_ABINIT
 
      HAVE_LIBTETRA_ABINIT                HAVE_LIBXC               HAVE_LINALG
 
         HAVE_LINALG_AXPBY        HAVE_LINALG_GEMM3M  HAVE_LINALG_MKL_IMATCOPY
 
   HAVE_LINALG_MKL_OMATADD  HAVE_LINALG_MKL_OMATCOPY   HAVE_LINALG_MKL_THREADS
 
        HAVE_LINALG_SERIAL                  HAVE_MPI                 HAVE_MPI2
 
       HAVE_MPI_IALLREDUCE        HAVE_MPI_IALLTOALL       HAVE_MPI_IALLTOALLV
 
           HAVE_MPI_IBCAST         HAVE_MPI_IGATHERV        HAVE_MPI_INTEGER16
 
               HAVE_MPI_IO HAVE_MPI_TYPE_CREATE_S...               HAVE_NETCDF
 
           HAVE_NETCDF_MPI                HAVE_NUMPY             HAVE_OS_LINUX
 
         HAVE_TIMER_ABINIT                  HAVE_XML              USE_MACROAVE
 
 ++++++++++++++++++++++++++++++++++++++++++++++++++++++++++++++++++++++++++++++

- input  file    -> ddb.in
- output file    -> ddb.out
- root for input  files -> ddbi
- root for output files -> ddbo
 
Netcdf library supports MPI-IO
-instrng: 200 lines of input have been read from file ddb.in
 

 Please give name of formatted atomic psp file
 For atom type 1, psp file is /CECI/home/ucl/naps/jovbever/.PsP/Si/Si.psp8
  read the values zionpsp=  4.0 , pspcod=   8 , lmax=   2
 
 inpspheads: deduce mpsang = 3, n1xccc = 2501.

======================================================= 
invars1m : enter jdtset= 1
 
 symlatt: the Bravais lattice is cF (face-centered cubic)
  xred   is defined in input file
 ingeo: takes atomic coordinates from input array xred
 
 symlatt: the Bravais lattice is cF (face-centered cubic)
 
 symlatt: the Bravais lattice is cF (face-centered cubic)
 
--- !COMMENT
src_file: m_symfind.F90
src_line: 931
message: |
    The Bravais lattice determined only from the primitive
    vectors, bravais(1)=  7, is more symmetric
    than the real one, iholohedry=  1, obtained by taking into
    account the atomic positions. Start deforming the primitive vector set.
...
 
 
 symlatt: the Bravais lattice is hR (rhombohedral)
 
--- !COMMENT
src_file: m_symfind.F90
src_line: 940
message: |
    The Bravais lattice determined from modified primitive
    vectors, bravais(1)=  5, has a lower symmetry than before,
    but is still more symmetric than the real one, iholohedry=  1
    obtained by taking into account the atomic positions.
...
 
 
 symlatt: the Bravais lattice is mC (one-face-centered monoclinic)
 
--- !COMMENT
src_file: m_symfind.F90
src_line: 940
message: |
    The Bravais lattice determined from modified primitive
    vectors, bravais(1)=  2, has a lower symmetry than before,
    but is still more symmetric than the real one, iholohedry=  1
    obtained by taking into account the atomic positions.
...
 
 
 symlatt: the Bravais lattice is aP (primitive triclinic)
 symspgr: spgroup=   1  P1   (=C1^1)

======================================================= 
invars1m : enter jdtset= 2
 
 symlatt: the Bravais lattice is cF (face-centered cubic)
  xred   is defined in input file
 ingeo: takes atomic coordinates from input array xred
 
 symlatt: the Bravais lattice is cF (face-centered cubic)
 
 symlatt: the Bravais lattice is cF (face-centered cubic)
 
--- !COMMENT
src_file: m_symfind.F90
src_line: 931
message: |
    The Bravais lattice determined only from the primitive
    vectors, bravais(1)=  7, is more symmetric
    than the real one, iholohedry=  1, obtained by taking into
    account the atomic positions. Start deforming the primitive vector set.
...
 
 
 symlatt: the Bravais lattice is hR (rhombohedral)
 
--- !COMMENT
src_file: m_symfind.F90
src_line: 940
message: |
    The Bravais lattice determined from modified primitive
    vectors, bravais(1)=  5, has a lower symmetry than before,
    but is still more symmetric than the real one, iholohedry=  1
    obtained by taking into account the atomic positions.
...
 
 
 symlatt: the Bravais lattice is mC (one-face-centered monoclinic)
 
--- !COMMENT
src_file: m_symfind.F90
src_line: 940
message: |
    The Bravais lattice determined from modified primitive
    vectors, bravais(1)=  2, has a lower symmetry than before,
    but is still more symmetric than the real one, iholohedry=  1
    obtained by taking into account the atomic positions.
...
 
 
 symlatt: the Bravais lattice is aP (primitive triclinic)
 symspgr: spgroup=   1  P1   (=C1^1)

======================================================= 
invars1m : enter jdtset= 3
 
 symlatt: the Bravais lattice is cF (face-centered cubic)
  xred   is defined in input file
 ingeo: takes atomic coordinates from input array xred
 
 symlatt: the Bravais lattice is cF (face-centered cubic)
 
 symlatt: the Bravais lattice is cF (face-centered cubic)
 
--- !COMMENT
src_file: m_symfind.F90
src_line: 931
message: |
    The Bravais lattice determined only from the primitive
    vectors, bravais(1)=  7, is more symmetric
    than the real one, iholohedry=  1, obtained by taking into
    account the atomic positions. Start deforming the primitive vector set.
...
 
 
 symlatt: the Bravais lattice is hR (rhombohedral)
 
--- !COMMENT
src_file: m_symfind.F90
src_line: 940
message: |
    The Bravais lattice determined from modified primitive
    vectors, bravais(1)=  5, has a lower symmetry than before,
    but is still more symmetric than the real one, iholohedry=  1
    obtained by taking into account the atomic positions.
...
 
 
 symlatt: the Bravais lattice is mC (one-face-centered monoclinic)
 
--- !COMMENT
src_file: m_symfind.F90
src_line: 940
message: |
    The Bravais lattice determined from modified primitive
    vectors, bravais(1)=  2, has a lower symmetry than before,
    but is still more symmetric than the real one, iholohedry=  1
    obtained by taking into account the atomic positions.
...
 
 
 symlatt: the Bravais lattice is aP (primitive triclinic)
 symspgr: spgroup=   1  P1   (=C1^1)

======================================================= 
invars1m : enter jdtset= 4
 
 symlatt: the Bravais lattice is cF (face-centered cubic)
  xred   is defined in input file
 ingeo: takes atomic coordinates from input array xred
 
 symlatt: the Bravais lattice is cF (face-centered cubic)
 
 symlatt: the Bravais lattice is cF (face-centered cubic)
 
--- !COMMENT
src_file: m_symfind.F90
src_line: 931
message: |
    The Bravais lattice determined only from the primitive
    vectors, bravais(1)=  7, is more symmetric
    than the real one, iholohedry=  1, obtained by taking into
    account the atomic positions. Start deforming the primitive vector set.
...
 
 
 symlatt: the Bravais lattice is hR (rhombohedral)
 
--- !COMMENT
src_file: m_symfind.F90
src_line: 940
message: |
    The Bravais lattice determined from modified primitive
    vectors, bravais(1)=  5, has a lower symmetry than before,
    but is still more symmetric than the real one, iholohedry=  1
    obtained by taking into account the atomic positions.
...
 
 
 symlatt: the Bravais lattice is mC (one-face-centered monoclinic)
 
--- !COMMENT
src_file: m_symfind.F90
src_line: 940
message: |
    The Bravais lattice determined from modified primitive
    vectors, bravais(1)=  2, has a lower symmetry than before,
    but is still more symmetric than the real one, iholohedry=  1
    obtained by taking into account the atomic positions.
...
 
 
 symlatt: the Bravais lattice is aP (primitive triclinic)
 symspgr: spgroup=   1  P1   (=C1^1)

======================================================= 
invars1m : enter jdtset= 5
 
 symlatt: the Bravais lattice is cF (face-centered cubic)
  xred   is defined in input file
 ingeo: takes atomic coordinates from input array xred
 
 symlatt: the Bravais lattice is cF (face-centered cubic)
 
 symlatt: the Bravais lattice is cF (face-centered cubic)
 
--- !COMMENT
src_file: m_symfind.F90
src_line: 931
message: |
    The Bravais lattice determined only from the primitive
    vectors, bravais(1)=  7, is more symmetric
    than the real one, iholohedry=  1, obtained by taking into
    account the atomic positions. Start deforming the primitive vector set.
...
 
 
 symlatt: the Bravais lattice is hR (rhombohedral)
 
--- !COMMENT
src_file: m_symfind.F90
src_line: 940
message: |
    The Bravais lattice determined from modified primitive
    vectors, bravais(1)=  5, has a lower symmetry than before,
    but is still more symmetric than the real one, iholohedry=  1
    obtained by taking into account the atomic positions.
...
 
 
 symlatt: the Bravais lattice is mC (one-face-centered monoclinic)
 
--- !COMMENT
src_file: m_symfind.F90
src_line: 940
message: |
    The Bravais lattice determined from modified primitive
    vectors, bravais(1)=  2, has a lower symmetry than before,
    but is still more symmetric than the real one, iholohedry=  1
    obtained by taking into account the atomic positions.
...
 
 
 symlatt: the Bravais lattice is aP (primitive triclinic)
 symspgr: spgroup=   1  P1   (=C1^1)

======================================================= 
invars1m : enter jdtset= 6
 
 symlatt: the Bravais lattice is cF (face-centered cubic)
  xred   is defined in input file
 ingeo: takes atomic coordinates from input array xred
 
 symlatt: the Bravais lattice is cF (face-centered cubic)
 
 symlatt: the Bravais lattice is cF (face-centered cubic)
 
--- !COMMENT
src_file: m_symfind.F90
src_line: 931
message: |
    The Bravais lattice determined only from the primitive
    vectors, bravais(1)=  7, is more symmetric
    than the real one, iholohedry=  1, obtained by taking into
    account the atomic positions. Start deforming the primitive vector set.
...
 
 
 symlatt: the Bravais lattice is hR (rhombohedral)
 
--- !COMMENT
src_file: m_symfind.F90
src_line: 940
message: |
    The Bravais lattice determined from modified primitive
    vectors, bravais(1)=  5, has a lower symmetry than before,
    but is still more symmetric than the real one, iholohedry=  1
    obtained by taking into account the atomic positions.
...
 
 
 symlatt: the Bravais lattice is mC (one-face-centered monoclinic)
 
--- !COMMENT
src_file: m_symfind.F90
src_line: 940
message: |
    The Bravais lattice determined from modified primitive
    vectors, bravais(1)=  2, has a lower symmetry than before,
    but is still more symmetric than the real one, iholohedry=  1
    obtained by taking into account the atomic positions.
...
 
 
 symlatt: the Bravais lattice is aP (primitive triclinic)
 symspgr: spgroup=   1  P1   (=C1^1)

======================================================= 
invars1m : enter jdtset= 7
 
 symlatt: the Bravais lattice is cF (face-centered cubic)
  xred   is defined in input file
 ingeo: takes atomic coordinates from input array xred
 
 symlatt: the Bravais lattice is cF (face-centered cubic)
 
 symlatt: the Bravais lattice is cF (face-centered cubic)
 
--- !COMMENT
src_file: m_symfind.F90
src_line: 931
message: |
    The Bravais lattice determined only from the primitive
    vectors, bravais(1)=  7, is more symmetric
    than the real one, iholohedry=  1, obtained by taking into
    account the atomic positions. Start deforming the primitive vector set.
...
 
 
 symlatt: the Bravais lattice is hR (rhombohedral)
 
--- !COMMENT
src_file: m_symfind.F90
src_line: 940
message: |
    The Bravais lattice determined from modified primitive
    vectors, bravais(1)=  5, has a lower symmetry than before,
    but is still more symmetric than the real one, iholohedry=  1
    obtained by taking into account the atomic positions.
...
 
 
 symlatt: the Bravais lattice is mC (one-face-centered monoclinic)
 
--- !COMMENT
src_file: m_symfind.F90
src_line: 940
message: |
    The Bravais lattice determined from modified primitive
    vectors, bravais(1)=  2, has a lower symmetry than before,
    but is still more symmetric than the real one, iholohedry=  1
    obtained by taking into account the atomic positions.
...
 
 
 symlatt: the Bravais lattice is aP (primitive triclinic)
 symspgr: spgroup=   1  P1   (=C1^1)

======================================================= 
invars1m : enter jdtset= 8
 
 symlatt: the Bravais lattice is cF (face-centered cubic)
  xred   is defined in input file
 ingeo: takes atomic coordinates from input array xred
 
 symlatt: the Bravais lattice is cF (face-centered cubic)
 
 symlatt: the Bravais lattice is cF (face-centered cubic)
 
--- !COMMENT
src_file: m_symfind.F90
src_line: 931
message: |
    The Bravais lattice determined only from the primitive
    vectors, bravais(1)=  7, is more symmetric
    than the real one, iholohedry=  1, obtained by taking into
    account the atomic positions. Start deforming the primitive vector set.
...
 
 
 symlatt: the Bravais lattice is hR (rhombohedral)
 
--- !COMMENT
src_file: m_symfind.F90
src_line: 940
message: |
    The Bravais lattice determined from modified primitive
    vectors, bravais(1)=  5, has a lower symmetry than before,
    but is still more symmetric than the real one, iholohedry=  1
    obtained by taking into account the atomic positions.
...
 
 
 symlatt: the Bravais lattice is mC (one-face-centered monoclinic)
 
--- !COMMENT
src_file: m_symfind.F90
src_line: 940
message: |
    The Bravais lattice determined from modified primitive
    vectors, bravais(1)=  2, has a lower symmetry than before,
    but is still more symmetric than the real one, iholohedry=  1
    obtained by taking into account the atomic positions.
...
 
 
 symlatt: the Bravais lattice is aP (primitive triclinic)
 symspgr: spgroup=   1  P1   (=C1^1)

======================================================= 
invars1m : enter jdtset= 9
 
 symlatt: the Bravais lattice is cF (face-centered cubic)
  xred   is defined in input file
 ingeo: takes atomic coordinates from input array xred
 
 symlatt: the Bravais lattice is cF (face-centered cubic)
 
 symlatt: the Bravais lattice is cF (face-centered cubic)
 
--- !COMMENT
src_file: m_symfind.F90
src_line: 931
message: |
    The Bravais lattice determined only from the primitive
    vectors, bravais(1)=  7, is more symmetric
    than the real one, iholohedry=  1, obtained by taking into
    account the atomic positions. Start deforming the primitive vector set.
...
 
 
 symlatt: the Bravais lattice is hR (rhombohedral)
 
--- !COMMENT
src_file: m_symfind.F90
src_line: 940
message: |
    The Bravais lattice determined from modified primitive
    vectors, bravais(1)=  5, has a lower symmetry than before,
    but is still more symmetric than the real one, iholohedry=  1
    obtained by taking into account the atomic positions.
...
 
 
 symlatt: the Bravais lattice is mC (one-face-centered monoclinic)
 
--- !COMMENT
src_file: m_symfind.F90
src_line: 940
message: |
    The Bravais lattice determined from modified primitive
    vectors, bravais(1)=  2, has a lower symmetry than before,
    but is still more symmetric than the real one, iholohedry=  1
    obtained by taking into account the atomic positions.
...
 
 
 symlatt: the Bravais lattice is aP (primitive triclinic)
 symspgr: spgroup=   1  P1   (=C1^1)

======================================================= 
invars1m : enter jdtset= 10
 
 symlatt: the Bravais lattice is cF (face-centered cubic)
  xred   is defined in input file
 ingeo: takes atomic coordinates from input array xred
 
 symlatt: the Bravais lattice is cF (face-centered cubic)
 
 symlatt: the Bravais lattice is cF (face-centered cubic)
 
--- !COMMENT
src_file: m_symfind.F90
src_line: 931
message: |
    The Bravais lattice determined only from the primitive
    vectors, bravais(1)=  7, is more symmetric
    than the real one, iholohedry=  1, obtained by taking into
    account the atomic positions. Start deforming the primitive vector set.
...
 
 
 symlatt: the Bravais lattice is hR (rhombohedral)
 
--- !COMMENT
src_file: m_symfind.F90
src_line: 940
message: |
    The Bravais lattice determined from modified primitive
    vectors, bravais(1)=  5, has a lower symmetry than before,
    but is still more symmetric than the real one, iholohedry=  1
    obtained by taking into account the atomic positions.
...
 
 
 symlatt: the Bravais lattice is mC (one-face-centered monoclinic)
 
--- !COMMENT
src_file: m_symfind.F90
src_line: 940
message: |
    The Bravais lattice determined from modified primitive
    vectors, bravais(1)=  2, has a lower symmetry than before,
    but is still more symmetric than the real one, iholohedry=  1
    obtained by taking into account the atomic positions.
...
 
 
 symlatt: the Bravais lattice is aP (primitive triclinic)
 symspgr: spgroup=   1  P1   (=C1^1)

======================================================= 
invars1m : enter jdtset= 11
 
 symlatt: the Bravais lattice is cF (face-centered cubic)
  xred   is defined in input file
 ingeo: takes atomic coordinates from input array xred
 
 symlatt: the Bravais lattice is cF (face-centered cubic)
 
 symlatt: the Bravais lattice is cF (face-centered cubic)
 
--- !COMMENT
src_file: m_symfind.F90
src_line: 931
message: |
    The Bravais lattice determined only from the primitive
    vectors, bravais(1)=  7, is more symmetric
    than the real one, iholohedry=  1, obtained by taking into
    account the atomic positions. Start deforming the primitive vector set.
...
 
 
 symlatt: the Bravais lattice is hR (rhombohedral)
 
--- !COMMENT
src_file: m_symfind.F90
src_line: 940
message: |
    The Bravais lattice determined from modified primitive
    vectors, bravais(1)=  5, has a lower symmetry than before,
    but is still more symmetric than the real one, iholohedry=  1
    obtained by taking into account the atomic positions.
...
 
 
 symlatt: the Bravais lattice is mC (one-face-centered monoclinic)
 
--- !COMMENT
src_file: m_symfind.F90
src_line: 940
message: |
    The Bravais lattice determined from modified primitive
    vectors, bravais(1)=  2, has a lower symmetry than before,
    but is still more symmetric than the real one, iholohedry=  1
    obtained by taking into account the atomic positions.
...
 
 
 symlatt: the Bravais lattice is aP (primitive triclinic)
 symspgr: spgroup=   1  P1   (=C1^1)

======================================================= 
invars1m : enter jdtset= 12
 
 symlatt: the Bravais lattice is cF (face-centered cubic)
  xred   is defined in input file
 ingeo: takes atomic coordinates from input array xred
 
 symlatt: the Bravais lattice is cF (face-centered cubic)
 
 symlatt: the Bravais lattice is cF (face-centered cubic)
 
--- !COMMENT
src_file: m_symfind.F90
src_line: 931
message: |
    The Bravais lattice determined only from the primitive
    vectors, bravais(1)=  7, is more symmetric
    than the real one, iholohedry=  1, obtained by taking into
    account the atomic positions. Start deforming the primitive vector set.
...
 
 
 symlatt: the Bravais lattice is hR (rhombohedral)
 
--- !COMMENT
src_file: m_symfind.F90
src_line: 940
message: |
    The Bravais lattice determined from modified primitive
    vectors, bravais(1)=  5, has a lower symmetry than before,
    but is still more symmetric than the real one, iholohedry=  1
    obtained by taking into account the atomic positions.
...
 
 
 symlatt: the Bravais lattice is mC (one-face-centered monoclinic)
 
--- !COMMENT
src_file: m_symfind.F90
src_line: 940
message: |
    The Bravais lattice determined from modified primitive
    vectors, bravais(1)=  2, has a lower symmetry than before,
    but is still more symmetric than the real one, iholohedry=  1
    obtained by taking into account the atomic positions.
...
 
 
 symlatt: the Bravais lattice is aP (primitive triclinic)
 symspgr: spgroup=   1  P1   (=C1^1)

======================================================= 
invars1m : enter jdtset= 13
 
 symlatt: the Bravais lattice is cF (face-centered cubic)
  xred   is defined in input file
 ingeo: takes atomic coordinates from input array xred
 
 symlatt: the Bravais lattice is cF (face-centered cubic)
 
 symlatt: the Bravais lattice is cF (face-centered cubic)
 
--- !COMMENT
src_file: m_symfind.F90
src_line: 931
message: |
    The Bravais lattice determined only from the primitive
    vectors, bravais(1)=  7, is more symmetric
    than the real one, iholohedry=  1, obtained by taking into
    account the atomic positions. Start deforming the primitive vector set.
...
 
 
 symlatt: the Bravais lattice is hR (rhombohedral)
 
--- !COMMENT
src_file: m_symfind.F90
src_line: 940
message: |
    The Bravais lattice determined from modified primitive
    vectors, bravais(1)=  5, has a lower symmetry than before,
    but is still more symmetric than the real one, iholohedry=  1
    obtained by taking into account the atomic positions.
...
 
 
 symlatt: the Bravais lattice is mC (one-face-centered monoclinic)
 
--- !COMMENT
src_file: m_symfind.F90
src_line: 940
message: |
    The Bravais lattice determined from modified primitive
    vectors, bravais(1)=  2, has a lower symmetry than before,
    but is still more symmetric than the real one, iholohedry=  1
    obtained by taking into account the atomic positions.
...
 
 
 symlatt: the Bravais lattice is aP (primitive triclinic)
 symspgr: spgroup=   1  P1   (=C1^1)

======================================================= 
invars1m : enter jdtset= 14
 
 symlatt: the Bravais lattice is cF (face-centered cubic)
  xred   is defined in input file
 ingeo: takes atomic coordinates from input array xred
 
 symlatt: the Bravais lattice is cF (face-centered cubic)
 
 symlatt: the Bravais lattice is cF (face-centered cubic)
 
--- !COMMENT
src_file: m_symfind.F90
src_line: 931
message: |
    The Bravais lattice determined only from the primitive
    vectors, bravais(1)=  7, is more symmetric
    than the real one, iholohedry=  1, obtained by taking into
    account the atomic positions. Start deforming the primitive vector set.
...
 
 
 symlatt: the Bravais lattice is hR (rhombohedral)
 
--- !COMMENT
src_file: m_symfind.F90
src_line: 940
message: |
    The Bravais lattice determined from modified primitive
    vectors, bravais(1)=  5, has a lower symmetry than before,
    but is still more symmetric than the real one, iholohedry=  1
    obtained by taking into account the atomic positions.
...
 
 
 symlatt: the Bravais lattice is mC (one-face-centered monoclinic)
 
--- !COMMENT
src_file: m_symfind.F90
src_line: 940
message: |
    The Bravais lattice determined from modified primitive
    vectors, bravais(1)=  2, has a lower symmetry than before,
    but is still more symmetric than the real one, iholohedry=  1
    obtained by taking into account the atomic positions.
...
 
 
 symlatt: the Bravais lattice is aP (primitive triclinic)
 symspgr: spgroup=   1  P1   (=C1^1)

======================================================= 
invars1m : enter jdtset= 15
 
 symlatt: the Bravais lattice is cF (face-centered cubic)
  xred   is defined in input file
 ingeo: takes atomic coordinates from input array xred
 
 symlatt: the Bravais lattice is cF (face-centered cubic)
 
 symlatt: the Bravais lattice is cF (face-centered cubic)
 
--- !COMMENT
src_file: m_symfind.F90
src_line: 931
message: |
    The Bravais lattice determined only from the primitive
    vectors, bravais(1)=  7, is more symmetric
    than the real one, iholohedry=  1, obtained by taking into
    account the atomic positions. Start deforming the primitive vector set.
...
 
 
 symlatt: the Bravais lattice is hR (rhombohedral)
 
--- !COMMENT
src_file: m_symfind.F90
src_line: 940
message: |
    The Bravais lattice determined from modified primitive
    vectors, bravais(1)=  5, has a lower symmetry than before,
    but is still more symmetric than the real one, iholohedry=  1
    obtained by taking into account the atomic positions.
...
 
 
 symlatt: the Bravais lattice is mC (one-face-centered monoclinic)
 
--- !COMMENT
src_file: m_symfind.F90
src_line: 940
message: |
    The Bravais lattice determined from modified primitive
    vectors, bravais(1)=  2, has a lower symmetry than before,
    but is still more symmetric than the real one, iholohedry=  1
    obtained by taking into account the atomic positions.
...
 
 
 symlatt: the Bravais lattice is aP (primitive triclinic)
 symspgr: spgroup=   1  P1   (=C1^1)

======================================================= 
invars1m : enter jdtset= 16
 
 symlatt: the Bravais lattice is cF (face-centered cubic)
  xred   is defined in input file
 ingeo: takes atomic coordinates from input array xred
 
 symlatt: the Bravais lattice is cF (face-centered cubic)
 
 symlatt: the Bravais lattice is cF (face-centered cubic)
 
--- !COMMENT
src_file: m_symfind.F90
src_line: 931
message: |
    The Bravais lattice determined only from the primitive
    vectors, bravais(1)=  7, is more symmetric
    than the real one, iholohedry=  1, obtained by taking into
    account the atomic positions. Start deforming the primitive vector set.
...
 
 
 symlatt: the Bravais lattice is hR (rhombohedral)
 
--- !COMMENT
src_file: m_symfind.F90
src_line: 940
message: |
    The Bravais lattice determined from modified primitive
    vectors, bravais(1)=  5, has a lower symmetry than before,
    but is still more symmetric than the real one, iholohedry=  1
    obtained by taking into account the atomic positions.
...
 
 
 symlatt: the Bravais lattice is mC (one-face-centered monoclinic)
 
--- !COMMENT
src_file: m_symfind.F90
src_line: 940
message: |
    The Bravais lattice determined from modified primitive
    vectors, bravais(1)=  2, has a lower symmetry than before,
    but is still more symmetric than the real one, iholohedry=  1
    obtained by taking into account the atomic positions.
...
 
 
 symlatt: the Bravais lattice is aP (primitive triclinic)
 symspgr: spgroup=   1  P1   (=C1^1)

======================================================= 
invars1m : enter jdtset= 17
 
 symlatt: the Bravais lattice is cF (face-centered cubic)
  xred   is defined in input file
 ingeo: takes atomic coordinates from input array xred
 
 symlatt: the Bravais lattice is cF (face-centered cubic)
 
 symlatt: the Bravais lattice is cF (face-centered cubic)
 
--- !COMMENT
src_file: m_symfind.F90
src_line: 931
message: |
    The Bravais lattice determined only from the primitive
    vectors, bravais(1)=  7, is more symmetric
    than the real one, iholohedry=  1, obtained by taking into
    account the atomic positions. Start deforming the primitive vector set.
...
 
 
 symlatt: the Bravais lattice is hR (rhombohedral)
 
--- !COMMENT
src_file: m_symfind.F90
src_line: 940
message: |
    The Bravais lattice determined from modified primitive
    vectors, bravais(1)=  5, has a lower symmetry than before,
    but is still more symmetric than the real one, iholohedry=  1
    obtained by taking into account the atomic positions.
...
 
 
 symlatt: the Bravais lattice is mC (one-face-centered monoclinic)
 
--- !COMMENT
src_file: m_symfind.F90
src_line: 940
message: |
    The Bravais lattice determined from modified primitive
    vectors, bravais(1)=  2, has a lower symmetry than before,
    but is still more symmetric than the real one, iholohedry=  1
    obtained by taking into account the atomic positions.
...
 
 
 symlatt: the Bravais lattice is aP (primitive triclinic)
 symspgr: spgroup=   1  P1   (=C1^1)

======================================================= 
invars1m : enter jdtset= 18
 
 symlatt: the Bravais lattice is cF (face-centered cubic)
  xred   is defined in input file
 ingeo: takes atomic coordinates from input array xred
 
 symlatt: the Bravais lattice is cF (face-centered cubic)
 
 symlatt: the Bravais lattice is cF (face-centered cubic)
 
--- !COMMENT
src_file: m_symfind.F90
src_line: 931
message: |
    The Bravais lattice determined only from the primitive
    vectors, bravais(1)=  7, is more symmetric
    than the real one, iholohedry=  1, obtained by taking into
    account the atomic positions. Start deforming the primitive vector set.
...
 
 
 symlatt: the Bravais lattice is hR (rhombohedral)
 
--- !COMMENT
src_file: m_symfind.F90
src_line: 940
message: |
    The Bravais lattice determined from modified primitive
    vectors, bravais(1)=  5, has a lower symmetry than before,
    but is still more symmetric than the real one, iholohedry=  1
    obtained by taking into account the atomic positions.
...
 
 
 symlatt: the Bravais lattice is mC (one-face-centered monoclinic)
 
--- !COMMENT
src_file: m_symfind.F90
src_line: 940
message: |
    The Bravais lattice determined from modified primitive
    vectors, bravais(1)=  2, has a lower symmetry than before,
    but is still more symmetric than the real one, iholohedry=  1
    obtained by taking into account the atomic positions.
...
 
 
 symlatt: the Bravais lattice is aP (primitive triclinic)
 symspgr: spgroup=   1  P1   (=C1^1)

======================================================= 
invars1m : enter jdtset= 19
 
 symlatt: the Bravais lattice is cF (face-centered cubic)
  xred   is defined in input file
 ingeo: takes atomic coordinates from input array xred
 
 symlatt: the Bravais lattice is cF (face-centered cubic)
 
 symlatt: the Bravais lattice is cF (face-centered cubic)
 
--- !COMMENT
src_file: m_symfind.F90
src_line: 931
message: |
    The Bravais lattice determined only from the primitive
    vectors, bravais(1)=  7, is more symmetric
    than the real one, iholohedry=  1, obtained by taking into
    account the atomic positions. Start deforming the primitive vector set.
...
 
 
 symlatt: the Bravais lattice is hR (rhombohedral)
 
--- !COMMENT
src_file: m_symfind.F90
src_line: 940
message: |
    The Bravais lattice determined from modified primitive
    vectors, bravais(1)=  5, has a lower symmetry than before,
    but is still more symmetric than the real one, iholohedry=  1
    obtained by taking into account the atomic positions.
...
 
 
 symlatt: the Bravais lattice is mC (one-face-centered monoclinic)
 
--- !COMMENT
src_file: m_symfind.F90
src_line: 940
message: |
    The Bravais lattice determined from modified primitive
    vectors, bravais(1)=  2, has a lower symmetry than before,
    but is still more symmetric than the real one, iholohedry=  1
    obtained by taking into account the atomic positions.
...
 
 
 symlatt: the Bravais lattice is aP (primitive triclinic)
 symspgr: spgroup=   1  P1   (=C1^1)
 For input ecut=  1.600000E+01 best grid ngfft=      30      30      30
       max ecut=  2.083822E+01
 
 ==== FFT mesh ====
  FFT mesh divisions ........................    30   30   30
  Augmented FFT divisions ...................    31   31   30
  FFT algorithm .............................   312
  FFT cache size ............................    16
 getmpw: optimal value of mpw= 863
 getmpw: optimal value of mpw= 863
 For input ecut=  1.600000E+01 best grid ngfft=      30      30      30
       max ecut=  2.083822E+01
 
 ==== FFT mesh ====
  FFT mesh divisions ........................    30   30   30
  Augmented FFT divisions ...................    31   31   30
  FFT algorithm .............................   312
  FFT cache size ............................    16
 getmpw: optimal value of mpw= 863
 getmpw: optimal value of mpw= 863
 For input ecut=  1.600000E+01 best grid ngfft=      30      30      30
       max ecut=  2.083822E+01
 
 ==== FFT mesh ====
  FFT mesh divisions ........................    30   30   30
  Augmented FFT divisions ...................    31   31   30
  FFT algorithm .............................   312
  FFT cache size ............................    16
 getmpw: optimal value of mpw= 863
 getmpw: optimal value of mpw= 863
 For input ecut=  1.600000E+01 best grid ngfft=      30      30      30
       max ecut=  2.083822E+01
 
 ==== FFT mesh ====
  FFT mesh divisions ........................    30   30   30
  Augmented FFT divisions ...................    31   31   30
  FFT algorithm .............................   312
  FFT cache size ............................    16
 getmpw: optimal value of mpw= 863
 getmpw: optimal value of mpw= 863
 For input ecut=  1.600000E+01 best grid ngfft=      30      30      30
       max ecut=  2.083822E+01
 
 ==== FFT mesh ====
  FFT mesh divisions ........................    30   30   30
  Augmented FFT divisions ...................    31   31   30
  FFT algorithm .............................   312
  FFT cache size ............................    16
 getmpw: optimal value of mpw= 863
 getmpw: optimal value of mpw= 863
 For input ecut=  1.600000E+01 best grid ngfft=      30      30      30
       max ecut=  2.083822E+01
 
 ==== FFT mesh ====
  FFT mesh divisions ........................    30   30   30
  Augmented FFT divisions ...................    31   31   30
  FFT algorithm .............................   312
  FFT cache size ............................    16
 getmpw: optimal value of mpw= 863
 getmpw: optimal value of mpw= 863
 For input ecut=  1.600000E+01 best grid ngfft=      30      30      30
       max ecut=  2.083822E+01
 
 ==== FFT mesh ====
  FFT mesh divisions ........................    30   30   30
  Augmented FFT divisions ...................    31   31   30
  FFT algorithm .............................   312
  FFT cache size ............................    16
 getmpw: optimal value of mpw= 863
 getmpw: optimal value of mpw= 863
 For input ecut=  1.600000E+01 best grid ngfft=      30      30      30
       max ecut=  2.083822E+01
 
 ==== FFT mesh ====
  FFT mesh divisions ........................    30   30   30
  Augmented FFT divisions ...................    31   31   30
  FFT algorithm .............................   312
  FFT cache size ............................    16
 getmpw: optimal value of mpw= 863
 getmpw: optimal value of mpw= 863
 For input ecut=  1.600000E+01 best grid ngfft=      30      30      30
       max ecut=  2.083822E+01
 
 ==== FFT mesh ====
  FFT mesh divisions ........................    30   30   30
  Augmented FFT divisions ...................    31   31   30
  FFT algorithm .............................   312
  FFT cache size ............................    16
 getmpw: optimal value of mpw= 863
 getmpw: optimal value of mpw= 863
 For input ecut=  1.600000E+01 best grid ngfft=      30      30      30
       max ecut=  2.083822E+01
 
 ==== FFT mesh ====
  FFT mesh divisions ........................    30   30   30
  Augmented FFT divisions ...................    31   31   30
  FFT algorithm .............................   312
  FFT cache size ............................    16
 getmpw: optimal value of mpw= 863
 getmpw: optimal value of mpw= 863
 For input ecut=  1.600000E+01 best grid ngfft=      30      30      30
       max ecut=  2.083822E+01
 
 ==== FFT mesh ====
  FFT mesh divisions ........................    30   30   30
  Augmented FFT divisions ...................    31   31   30
  FFT algorithm .............................   312
  FFT cache size ............................    16
 getmpw: optimal value of mpw= 863
 getmpw: optimal value of mpw= 863
 For input ecut=  1.600000E+01 best grid ngfft=      30      30      30
       max ecut=  2.083822E+01
 
 ==== FFT mesh ====
  FFT mesh divisions ........................    30   30   30
  Augmented FFT divisions ...................    31   31   30
  FFT algorithm .............................   312
  FFT cache size ............................    16
 getmpw: optimal value of mpw= 863
 getmpw: optimal value of mpw= 863
 For input ecut=  1.600000E+01 best grid ngfft=      30      30      30
       max ecut=  2.083822E+01
 
 ==== FFT mesh ====
  FFT mesh divisions ........................    30   30   30
  Augmented FFT divisions ...................    31   31   30
  FFT algorithm .............................   312
  FFT cache size ............................    16
 getmpw: optimal value of mpw= 863
 getmpw: optimal value of mpw= 863
 For input ecut=  1.600000E+01 best grid ngfft=      30      30      30
       max ecut=  2.083822E+01
 
 ==== FFT mesh ====
  FFT mesh divisions ........................    30   30   30
  Augmented FFT divisions ...................    31   31   30
  FFT algorithm .............................   312
  FFT cache size ............................    16
 getmpw: optimal value of mpw= 863
 getmpw: optimal value of mpw= 863
 For input ecut=  1.600000E+01 best grid ngfft=      30      30      30
       max ecut=  2.083822E+01
 
 ==== FFT mesh ====
  FFT mesh divisions ........................    30   30   30
  Augmented FFT divisions ...................    31   31   30
  FFT algorithm .............................   312
  FFT cache size ............................    16
 getmpw: optimal value of mpw= 863
 getmpw: optimal value of mpw= 863
 For input ecut=  1.600000E+01 best grid ngfft=      30      30      30
       max ecut=  2.083822E+01
 
 ==== FFT mesh ====
  FFT mesh divisions ........................    30   30   30
  Augmented FFT divisions ...................    31   31   30
  FFT algorithm .............................   312
  FFT cache size ............................    16
 getmpw: optimal value of mpw= 863
 getmpw: optimal value of mpw= 863
 For input ecut=  1.600000E+01 best grid ngfft=      30      30      30
       max ecut=  2.083822E+01
 
 ==== FFT mesh ====
  FFT mesh divisions ........................    30   30   30
  Augmented FFT divisions ...................    31   31   30
  FFT algorithm .............................   312
  FFT cache size ............................    16
 getmpw: optimal value of mpw= 863
 getmpw: optimal value of mpw= 863
 For input ecut=  1.600000E+01 best grid ngfft=      30      30      30
       max ecut=  2.083822E+01
 
 ==== FFT mesh ====
  FFT mesh divisions ........................    30   30   30
  Augmented FFT divisions ...................    31   31   30
  FFT algorithm .............................   312
  FFT cache size ............................    16
 getmpw: optimal value of mpw= 863
 getmpw: optimal value of mpw= 863
 For input ecut=  1.600000E+01 best grid ngfft=      30      30      30
       max ecut=  2.083822E+01
 
 ==== FFT mesh ====
  FFT mesh divisions ........................    30   30   30
  Augmented FFT divisions ...................    31   31   30
  FFT algorithm .............................   312
  FFT cache size ............................    16
 getmpw: optimal value of mpw= 863
 getmpw: optimal value of mpw= 863
 
 DATASET    1 : space group P1 (#  1); Bravais aP (primitive triclinic)
 
 getdim_nloc : deduce lmnmax  =  18, lnmax  =   6,
                      lmnmaxso=  18, lnmaxso=   6.
 memorf : analysis of memory needs
================================================================================
 Values of the parameters that define the memory need for DATASET  1 (RF).
     intxc =       0      iscf =       7    lmnmax =       6     lnmax =       6
     mgfft =      30  mpssoang =       3    mqgrid =    3001     natom =       2
  nloc_mem =       1    nspden =       1   nspinor =       1    nsppol =       1
      nsym =       1    n1xccc =    2501    ntypat =       1    occopt =       1
   xclevel =       2
-    mband =           4        mffmem =           1         mkmem =          19
-   mkqmem =          19        mk1mem =          19           mpw =         863
      nfft =       27000          nkpt =         256
================================================================================
P This job should need less than                      11.548 Mbytes of memory.
  Rough estimation (10% accuracy) of disk space for files :
_ WF disk file :     13.486 Mbytes ; DEN or POT disk file :      0.208 Mbytes.
================================================================================
 
 Biggest array : cg(disk), with      1.0028 MBytes.
 memana : allocated an array of      1.003 Mbytes, for testing purposes.
 memana: allocated      11.548Mbytes, for testing purposes. 
 The job will continue.
 
 DATASET    2 : space group P1 (#  1); Bravais aP (primitive triclinic)
 
 getdim_nloc : deduce lmnmax  =  18, lnmax  =   6,
                      lmnmaxso=  18, lnmaxso=   6.
 memorf : analysis of memory needs
================================================================================
 Values of the parameters that define the memory need for DATASET  2 (RF).
     intxc =       0      iscf =       7    lmnmax =       6     lnmax =       6
     mgfft =      30  mpssoang =       3    mqgrid =    3001     natom =       2
  nloc_mem =       1    nspden =       1   nspinor =       1    nsppol =       1
      nsym =       1    n1xccc =    2501    ntypat =       1    occopt =       1
   xclevel =       2
-    mband =           4        mffmem =           1         mkmem =          19
-   mkqmem =          19        mk1mem =          19           mpw =         863
      nfft =       27000          nkpt =         256
================================================================================
P This job should need less than                      11.548 Mbytes of memory.
  Rough estimation (10% accuracy) of disk space for files :
_ WF disk file :     13.486 Mbytes ; DEN or POT disk file :      0.208 Mbytes.
================================================================================
 
 Biggest array : cg(disk), with      1.0028 MBytes.
 memana : allocated an array of      1.003 Mbytes, for testing purposes.
 memana: allocated      11.548Mbytes, for testing purposes. 
 The job will continue.
 
 DATASET    3 : space group P1 (#  1); Bravais aP (primitive triclinic)
 
 getdim_nloc : deduce lmnmax  =  18, lnmax  =   6,
                      lmnmaxso=  18, lnmaxso=   6.
 memorf : analysis of memory needs
================================================================================
 Values of the parameters that define the memory need for DATASET  3 (RF).
     intxc =       0      iscf =       7    lmnmax =       6     lnmax =       6
     mgfft =      30  mpssoang =       3    mqgrid =    3001     natom =       2
  nloc_mem =       1    nspden =       1   nspinor =       1    nsppol =       1
      nsym =       1    n1xccc =    2501    ntypat =       1    occopt =       1
   xclevel =       2
-    mband =           4        mffmem =           1         mkmem =          19
-   mkqmem =          19        mk1mem =          19           mpw =         863
      nfft =       27000          nkpt =         256
================================================================================
P This job should need less than                      11.548 Mbytes of memory.
  Rough estimation (10% accuracy) of disk space for files :
_ WF disk file :     13.486 Mbytes ; DEN or POT disk file :      0.208 Mbytes.
================================================================================
 
 Biggest array : cg(disk), with      1.0028 MBytes.
 memana : allocated an array of      1.003 Mbytes, for testing purposes.
 memana: allocated      11.548Mbytes, for testing purposes. 
 The job will continue.
 
 DATASET    4 : space group P1 (#  1); Bravais aP (primitive triclinic)
 
 getdim_nloc : deduce lmnmax  =  18, lnmax  =   6,
                      lmnmaxso=  18, lnmaxso=   6.
 memorf : analysis of memory needs
================================================================================
 Values of the parameters that define the memory need for DATASET  4 (RF).
     intxc =       0      iscf =       7    lmnmax =       6     lnmax =       6
     mgfft =      30  mpssoang =       3    mqgrid =    3001     natom =       2
  nloc_mem =       1    nspden =       1   nspinor =       1    nsppol =       1
      nsym =       1    n1xccc =    2501    ntypat =       1    occopt =       1
   xclevel =       2
-    mband =           4        mffmem =           1         mkmem =          19
-   mkqmem =          19        mk1mem =          19           mpw =         863
      nfft =       27000          nkpt =         256
================================================================================
P This job should need less than                      11.548 Mbytes of memory.
  Rough estimation (10% accuracy) of disk space for files :
_ WF disk file :     13.486 Mbytes ; DEN or POT disk file :      0.208 Mbytes.
================================================================================
 
 Biggest array : cg(disk), with      1.0028 MBytes.
 memana : allocated an array of      1.003 Mbytes, for testing purposes.
 memana: allocated      11.548Mbytes, for testing purposes. 
 The job will continue.
 
 DATASET    5 : space group P1 (#  1); Bravais aP (primitive triclinic)
 
 getdim_nloc : deduce lmnmax  =  18, lnmax  =   6,
                      lmnmaxso=  18, lnmaxso=   6.
 memorf : analysis of memory needs
================================================================================
 Values of the parameters that define the memory need for DATASET  5 (RF).
     intxc =       0      iscf =       7    lmnmax =       6     lnmax =       6
     mgfft =      30  mpssoang =       3    mqgrid =    3001     natom =       2
  nloc_mem =       1    nspden =       1   nspinor =       1    nsppol =       1
      nsym =       1    n1xccc =    2501    ntypat =       1    occopt =       1
   xclevel =       2
-    mband =           4        mffmem =           1         mkmem =          19
-   mkqmem =          19        mk1mem =          19           mpw =         863
      nfft =       27000          nkpt =         256
================================================================================
P This job should need less than                      11.548 Mbytes of memory.
  Rough estimation (10% accuracy) of disk space for files :
_ WF disk file :     13.486 Mbytes ; DEN or POT disk file :      0.208 Mbytes.
================================================================================
 
 Biggest array : cg(disk), with      1.0028 MBytes.
 memana : allocated an array of      1.003 Mbytes, for testing purposes.
 memana: allocated      11.548Mbytes, for testing purposes. 
 The job will continue.
 
 DATASET    6 : space group P1 (#  1); Bravais aP (primitive triclinic)
 
 getdim_nloc : deduce lmnmax  =  18, lnmax  =   6,
                      lmnmaxso=  18, lnmaxso=   6.
 memorf : analysis of memory needs
================================================================================
 Values of the parameters that define the memory need for DATASET  6 (RF).
     intxc =       0      iscf =       7    lmnmax =       6     lnmax =       6
     mgfft =      30  mpssoang =       3    mqgrid =    3001     natom =       2
  nloc_mem =       1    nspden =       1   nspinor =       1    nsppol =       1
      nsym =       1    n1xccc =    2501    ntypat =       1    occopt =       1
   xclevel =       2
-    mband =           4        mffmem =           1         mkmem =          19
-   mkqmem =          19        mk1mem =          19           mpw =         863
      nfft =       27000          nkpt =         256
================================================================================
P This job should need less than                      11.548 Mbytes of memory.
  Rough estimation (10% accuracy) of disk space for files :
_ WF disk file :     13.486 Mbytes ; DEN or POT disk file :      0.208 Mbytes.
================================================================================
 
 Biggest array : cg(disk), with      1.0028 MBytes.
 memana : allocated an array of      1.003 Mbytes, for testing purposes.
 memana: allocated      11.548Mbytes, for testing purposes. 
 The job will continue.
 
 DATASET    7 : space group P1 (#  1); Bravais aP (primitive triclinic)
 
 getdim_nloc : deduce lmnmax  =  18, lnmax  =   6,
                      lmnmaxso=  18, lnmaxso=   6.
 memorf : analysis of memory needs
================================================================================
 Values of the parameters that define the memory need for DATASET  7 (RF).
     intxc =       0      iscf =       7    lmnmax =       6     lnmax =       6
     mgfft =      30  mpssoang =       3    mqgrid =    3001     natom =       2
  nloc_mem =       1    nspden =       1   nspinor =       1    nsppol =       1
      nsym =       1    n1xccc =    2501    ntypat =       1    occopt =       1
   xclevel =       2
-    mband =           4        mffmem =           1         mkmem =          19
-   mkqmem =          19        mk1mem =          19           mpw =         863
      nfft =       27000          nkpt =         256
================================================================================
P This job should need less than                      11.548 Mbytes of memory.
  Rough estimation (10% accuracy) of disk space for files :
_ WF disk file :     13.486 Mbytes ; DEN or POT disk file :      0.208 Mbytes.
================================================================================
 
 Biggest array : cg(disk), with      1.0028 MBytes.
 memana : allocated an array of      1.003 Mbytes, for testing purposes.
 memana: allocated      11.548Mbytes, for testing purposes. 
 The job will continue.
 
 DATASET    8 : space group P1 (#  1); Bravais aP (primitive triclinic)
 
 getdim_nloc : deduce lmnmax  =  18, lnmax  =   6,
                      lmnmaxso=  18, lnmaxso=   6.
 memorf : analysis of memory needs
================================================================================
 Values of the parameters that define the memory need for DATASET  8 (RF).
     intxc =       0      iscf =       7    lmnmax =       6     lnmax =       6
     mgfft =      30  mpssoang =       3    mqgrid =    3001     natom =       2
  nloc_mem =       1    nspden =       1   nspinor =       1    nsppol =       1
      nsym =       1    n1xccc =    2501    ntypat =       1    occopt =       1
   xclevel =       2
-    mband =           4        mffmem =           1         mkmem =          19
-   mkqmem =          19        mk1mem =          19           mpw =         863
      nfft =       27000          nkpt =         256
================================================================================
P This job should need less than                      11.548 Mbytes of memory.
  Rough estimation (10% accuracy) of disk space for files :
_ WF disk file :     13.486 Mbytes ; DEN or POT disk file :      0.208 Mbytes.
================================================================================
 
 Biggest array : cg(disk), with      1.0028 MBytes.
 memana : allocated an array of      1.003 Mbytes, for testing purposes.
 memana: allocated      11.548Mbytes, for testing purposes. 
 The job will continue.
 
 DATASET    9 : space group P1 (#  1); Bravais aP (primitive triclinic)
 
 getdim_nloc : deduce lmnmax  =  18, lnmax  =   6,
                      lmnmaxso=  18, lnmaxso=   6.
 memorf : analysis of memory needs
================================================================================
 Values of the parameters that define the memory need for DATASET  9 (RF).
     intxc =       0      iscf =       7    lmnmax =       6     lnmax =       6
     mgfft =      30  mpssoang =       3    mqgrid =    3001     natom =       2
  nloc_mem =       1    nspden =       1   nspinor =       1    nsppol =       1
      nsym =       1    n1xccc =    2501    ntypat =       1    occopt =       1
   xclevel =       2
-    mband =           4        mffmem =           1         mkmem =          19
-   mkqmem =          19        mk1mem =          19           mpw =         863
      nfft =       27000          nkpt =         256
================================================================================
P This job should need less than                      11.548 Mbytes of memory.
  Rough estimation (10% accuracy) of disk space for files :
_ WF disk file :     13.486 Mbytes ; DEN or POT disk file :      0.208 Mbytes.
================================================================================
 
 Biggest array : cg(disk), with      1.0028 MBytes.
 memana : allocated an array of      1.003 Mbytes, for testing purposes.
 memana: allocated      11.548Mbytes, for testing purposes. 
 The job will continue.
 
 DATASET   10 : space group P1 (#  1); Bravais aP (primitive triclinic)
 
 getdim_nloc : deduce lmnmax  =  18, lnmax  =   6,
                      lmnmaxso=  18, lnmaxso=   6.
 memorf : analysis of memory needs
================================================================================
 Values of the parameters that define the memory need for DATASET 10 (RF).
     intxc =       0      iscf =       7    lmnmax =       6     lnmax =       6
     mgfft =      30  mpssoang =       3    mqgrid =    3001     natom =       2
  nloc_mem =       1    nspden =       1   nspinor =       1    nsppol =       1
      nsym =       1    n1xccc =    2501    ntypat =       1    occopt =       1
   xclevel =       2
-    mband =           4        mffmem =           1         mkmem =          19
-   mkqmem =          19        mk1mem =          19           mpw =         863
      nfft =       27000          nkpt =         256
================================================================================
P This job should need less than                      11.548 Mbytes of memory.
  Rough estimation (10% accuracy) of disk space for files :
_ WF disk file :     13.486 Mbytes ; DEN or POT disk file :      0.208 Mbytes.
================================================================================
 
 Biggest array : cg(disk), with      1.0028 MBytes.
 memana : allocated an array of      1.003 Mbytes, for testing purposes.
 memana: allocated      11.548Mbytes, for testing purposes. 
 The job will continue.
 
 DATASET   11 : space group P1 (#  1); Bravais aP (primitive triclinic)
 
 getdim_nloc : deduce lmnmax  =  18, lnmax  =   6,
                      lmnmaxso=  18, lnmaxso=   6.
 memorf : analysis of memory needs
================================================================================
 Values of the parameters that define the memory need for DATASET 11 (RF).
     intxc =       0      iscf =       7    lmnmax =       6     lnmax =       6
     mgfft =      30  mpssoang =       3    mqgrid =    3001     natom =       2
  nloc_mem =       1    nspden =       1   nspinor =       1    nsppol =       1
      nsym =       1    n1xccc =    2501    ntypat =       1    occopt =       1
   xclevel =       2
-    mband =           4        mffmem =           1         mkmem =          19
-   mkqmem =          19        mk1mem =          19           mpw =         863
      nfft =       27000          nkpt =         256
================================================================================
P This job should need less than                      11.548 Mbytes of memory.
  Rough estimation (10% accuracy) of disk space for files :
_ WF disk file :     13.486 Mbytes ; DEN or POT disk file :      0.208 Mbytes.
================================================================================
 
 Biggest array : cg(disk), with      1.0028 MBytes.
 memana : allocated an array of      1.003 Mbytes, for testing purposes.
 memana: allocated      11.548Mbytes, for testing purposes. 
 The job will continue.
 
 DATASET   12 : space group P1 (#  1); Bravais aP (primitive triclinic)
 
 getdim_nloc : deduce lmnmax  =  18, lnmax  =   6,
                      lmnmaxso=  18, lnmaxso=   6.
 memorf : analysis of memory needs
================================================================================
 Values of the parameters that define the memory need for DATASET 12 (RF).
     intxc =       0      iscf =       7    lmnmax =       6     lnmax =       6
     mgfft =      30  mpssoang =       3    mqgrid =    3001     natom =       2
  nloc_mem =       1    nspden =       1   nspinor =       1    nsppol =       1
      nsym =       1    n1xccc =    2501    ntypat =       1    occopt =       1
   xclevel =       2
-    mband =           4        mffmem =           1         mkmem =          19
-   mkqmem =          19        mk1mem =          19           mpw =         863
      nfft =       27000          nkpt =         256
================================================================================
P This job should need less than                      11.548 Mbytes of memory.
  Rough estimation (10% accuracy) of disk space for files :
_ WF disk file :     13.486 Mbytes ; DEN or POT disk file :      0.208 Mbytes.
================================================================================
 
 Biggest array : cg(disk), with      1.0028 MBytes.
 memana : allocated an array of      1.003 Mbytes, for testing purposes.
 memana: allocated      11.548Mbytes, for testing purposes. 
 The job will continue.
 
 DATASET   13 : space group P1 (#  1); Bravais aP (primitive triclinic)
 
 getdim_nloc : deduce lmnmax  =  18, lnmax  =   6,
                      lmnmaxso=  18, lnmaxso=   6.
 memorf : analysis of memory needs
================================================================================
 Values of the parameters that define the memory need for DATASET 13 (RF).
     intxc =       0      iscf =       7    lmnmax =       6     lnmax =       6
     mgfft =      30  mpssoang =       3    mqgrid =    3001     natom =       2
  nloc_mem =       1    nspden =       1   nspinor =       1    nsppol =       1
      nsym =       1    n1xccc =    2501    ntypat =       1    occopt =       1
   xclevel =       2
-    mband =           4        mffmem =           1         mkmem =          19
-   mkqmem =          19        mk1mem =          19           mpw =         863
      nfft =       27000          nkpt =         256
================================================================================
P This job should need less than                      11.548 Mbytes of memory.
  Rough estimation (10% accuracy) of disk space for files :
_ WF disk file :     13.486 Mbytes ; DEN or POT disk file :      0.208 Mbytes.
================================================================================
 
 Biggest array : cg(disk), with      1.0028 MBytes.
 memana : allocated an array of      1.003 Mbytes, for testing purposes.
 memana: allocated      11.548Mbytes, for testing purposes. 
 The job will continue.
 
 DATASET   14 : space group P1 (#  1); Bravais aP (primitive triclinic)
 
 getdim_nloc : deduce lmnmax  =  18, lnmax  =   6,
                      lmnmaxso=  18, lnmaxso=   6.
 memorf : analysis of memory needs
================================================================================
 Values of the parameters that define the memory need for DATASET 14 (RF).
     intxc =       0      iscf =       7    lmnmax =       6     lnmax =       6
     mgfft =      30  mpssoang =       3    mqgrid =    3001     natom =       2
  nloc_mem =       1    nspden =       1   nspinor =       1    nsppol =       1
      nsym =       1    n1xccc =    2501    ntypat =       1    occopt =       1
   xclevel =       2
-    mband =           4        mffmem =           1         mkmem =          19
-   mkqmem =          19        mk1mem =          19           mpw =         863
      nfft =       27000          nkpt =         256
================================================================================
P This job should need less than                      11.548 Mbytes of memory.
  Rough estimation (10% accuracy) of disk space for files :
_ WF disk file :     13.486 Mbytes ; DEN or POT disk file :      0.208 Mbytes.
================================================================================
 
 Biggest array : cg(disk), with      1.0028 MBytes.
 memana : allocated an array of      1.003 Mbytes, for testing purposes.
 memana: allocated      11.548Mbytes, for testing purposes. 
 The job will continue.
 
 DATASET   15 : space group P1 (#  1); Bravais aP (primitive triclinic)
 
 getdim_nloc : deduce lmnmax  =  18, lnmax  =   6,
                      lmnmaxso=  18, lnmaxso=   6.
 memorf : analysis of memory needs
================================================================================
 Values of the parameters that define the memory need for DATASET 15 (RF).
     intxc =       0      iscf =       7    lmnmax =       6     lnmax =       6
     mgfft =      30  mpssoang =       3    mqgrid =    3001     natom =       2
  nloc_mem =       1    nspden =       1   nspinor =       1    nsppol =       1
      nsym =       1    n1xccc =    2501    ntypat =       1    occopt =       1
   xclevel =       2
-    mband =           4        mffmem =           1         mkmem =          19
-   mkqmem =          19        mk1mem =          19           mpw =         863
      nfft =       27000          nkpt =         256
================================================================================
P This job should need less than                      11.548 Mbytes of memory.
  Rough estimation (10% accuracy) of disk space for files :
_ WF disk file :     13.486 Mbytes ; DEN or POT disk file :      0.208 Mbytes.
================================================================================
 
 Biggest array : cg(disk), with      1.0028 MBytes.
 memana : allocated an array of      1.003 Mbytes, for testing purposes.
 memana: allocated      11.548Mbytes, for testing purposes. 
 The job will continue.
 
 DATASET   16 : space group P1 (#  1); Bravais aP (primitive triclinic)
 
 getdim_nloc : deduce lmnmax  =  18, lnmax  =   6,
                      lmnmaxso=  18, lnmaxso=   6.
 memorf : analysis of memory needs
================================================================================
 Values of the parameters that define the memory need for DATASET 16 (RF).
     intxc =       0      iscf =       7    lmnmax =       6     lnmax =       6
     mgfft =      30  mpssoang =       3    mqgrid =    3001     natom =       2
  nloc_mem =       1    nspden =       1   nspinor =       1    nsppol =       1
      nsym =       1    n1xccc =    2501    ntypat =       1    occopt =       1
   xclevel =       2
-    mband =           4        mffmem =           1         mkmem =          19
-   mkqmem =          19        mk1mem =          19           mpw =         863
      nfft =       27000          nkpt =         256
================================================================================
P This job should need less than                      11.548 Mbytes of memory.
  Rough estimation (10% accuracy) of disk space for files :
_ WF disk file :     13.486 Mbytes ; DEN or POT disk file :      0.208 Mbytes.
================================================================================
 
 Biggest array : cg(disk), with      1.0028 MBytes.
 memana : allocated an array of      1.003 Mbytes, for testing purposes.
 memana: allocated      11.548Mbytes, for testing purposes. 
 The job will continue.
 
 DATASET   17 : space group P1 (#  1); Bravais aP (primitive triclinic)
 
 getdim_nloc : deduce lmnmax  =  18, lnmax  =   6,
                      lmnmaxso=  18, lnmaxso=   6.
 memorf : analysis of memory needs
================================================================================
 Values of the parameters that define the memory need for DATASET 17 (RF).
     intxc =       0      iscf =       7    lmnmax =       6     lnmax =       6
     mgfft =      30  mpssoang =       3    mqgrid =    3001     natom =       2
  nloc_mem =       1    nspden =       1   nspinor =       1    nsppol =       1
      nsym =       1    n1xccc =    2501    ntypat =       1    occopt =       1
   xclevel =       2
-    mband =           4        mffmem =           1         mkmem =          19
-   mkqmem =          19        mk1mem =          19           mpw =         863
      nfft =       27000          nkpt =         256
================================================================================
P This job should need less than                      11.548 Mbytes of memory.
  Rough estimation (10% accuracy) of disk space for files :
_ WF disk file :     13.486 Mbytes ; DEN or POT disk file :      0.208 Mbytes.
================================================================================
 
 Biggest array : cg(disk), with      1.0028 MBytes.
 memana : allocated an array of      1.003 Mbytes, for testing purposes.
 memana: allocated      11.548Mbytes, for testing purposes. 
 The job will continue.
 
 DATASET   18 : space group P1 (#  1); Bravais aP (primitive triclinic)
 
 getdim_nloc : deduce lmnmax  =  18, lnmax  =   6,
                      lmnmaxso=  18, lnmaxso=   6.
 memorf : analysis of memory needs
================================================================================
 Values of the parameters that define the memory need for DATASET 18 (RF).
     intxc =       0      iscf =       7    lmnmax =       6     lnmax =       6
     mgfft =      30  mpssoang =       3    mqgrid =    3001     natom =       2
  nloc_mem =       1    nspden =       1   nspinor =       1    nsppol =       1
      nsym =       1    n1xccc =    2501    ntypat =       1    occopt =       1
   xclevel =       2
-    mband =           4        mffmem =           1         mkmem =          19
-   mkqmem =          19        mk1mem =          19           mpw =         863
      nfft =       27000          nkpt =         256
================================================================================
P This job should need less than                      11.548 Mbytes of memory.
  Rough estimation (10% accuracy) of disk space for files :
_ WF disk file :     13.486 Mbytes ; DEN or POT disk file :      0.208 Mbytes.
================================================================================
 
 Biggest array : cg(disk), with      1.0028 MBytes.
 memana : allocated an array of      1.003 Mbytes, for testing purposes.
 memana: allocated      11.548Mbytes, for testing purposes. 
 The job will continue.
 
 DATASET   19 : space group P1 (#  1); Bravais aP (primitive triclinic)
 
 getdim_nloc : deduce lmnmax  =  18, lnmax  =   6,
                      lmnmaxso=  18, lnmaxso=   6.
 memorf : analysis of memory needs
================================================================================
 Values of the parameters that define the memory need for DATASET 19 (RF).
     intxc =       0      iscf =       7    lmnmax =       6     lnmax =       6
     mgfft =      30  mpssoang =       3    mqgrid =    3001     natom =       2
  nloc_mem =       1    nspden =       1   nspinor =       1    nsppol =       1
      nsym =       1    n1xccc =    2501    ntypat =       1    occopt =       1
   xclevel =       2
-    mband =           4        mffmem =           1         mkmem =          19
-   mkqmem =          19        mk1mem =          19           mpw =         863
      nfft =       27000          nkpt =         256
================================================================================
P This job should need less than                      11.548 Mbytes of memory.
  Rough estimation (10% accuracy) of disk space for files :
_ WF disk file :     13.486 Mbytes ; DEN or POT disk file :      0.208 Mbytes.
================================================================================
 
 Biggest array : cg(disk), with      1.0028 MBytes.
 memana : allocated an array of      1.003 Mbytes, for testing purposes.
 memana: allocated      11.548Mbytes, for testing purposes. 
 The job will continue.
 
--- !WARNING
src_file: m_outvars.F90
src_line: 213
message: |
    output of OUT.nc has been disabled. Too many datasets
...
 
--------------------------------------------------------------------------------
------------- Echo of variables that govern the present computation ------------
--------------------------------------------------------------------------------
-
- outvars: echo of selected default values                                      
-   iomode0 =  0 , fftalg0 =312 , wfoptalg0 =  0
-
- outvars: echo of global parameters not present in the input file              
-  max_nthreads =    0
-
 -outvars: echo values of preprocessed input variables --------
 
--- !WARNING
src_file: m_outvars.F90
src_line: 213
message: |
    output of OUT.nc has been disabled. Too many datasets
...
 
            acell      7.3076524878E+00  7.3076524882E+00  7.3076524889E+00 Bohr
              amu      2.80855000E+01
           diemac      1.20000000E+01
             ecut      1.60000000E+01 Hartree
-          fftalg         312
           irdwfk           1
              ixc          11
           jdtset        1    2    3    4    5    6    7    8    9   10
                        11   12   13   14   15   16   17   18   19
              kpt     -1.25000000E-01 -2.50000000E-01  0.00000000E+00
                      -2.50000000E-01 -1.25000000E-01  0.00000000E+00
                      -1.25000000E-01 -1.25000000E-01  1.25000000E-01
                      -1.25000000E-01  5.00000000E-01  0.00000000E+00
                      -2.50000000E-01 -3.75000000E-01  0.00000000E+00
                      -1.25000000E-01 -3.75000000E-01  1.25000000E-01
                      -3.75000000E-01 -2.50000000E-01  0.00000000E+00
                      -2.50000000E-01 -2.50000000E-01  1.25000000E-01
                      -1.25000000E-01 -2.50000000E-01  2.50000000E-01
                       5.00000000E-01 -1.25000000E-01  0.00000000E+00
                      -3.75000000E-01 -1.25000000E-01  1.25000000E-01
                      -2.50000000E-01 -1.25000000E-01  2.50000000E-01
                      -1.25000000E-01 -1.25000000E-01  3.75000000E-01
                      -1.25000000E-01  2.50000000E-01  0.00000000E+00
                      -2.50000000E-01  3.75000000E-01  0.00000000E+00
                      -1.25000000E-01  3.75000000E-01  1.25000000E-01
                      -3.75000000E-01  5.00000000E-01  0.00000000E+00
                      -2.50000000E-01  5.00000000E-01  1.25000000E-01
                      -1.25000000E-01  5.00000000E-01  2.50000000E-01
                       5.00000000E-01 -3.75000000E-01  0.00000000E+00
                      -3.75000000E-01 -3.75000000E-01  1.25000000E-01
                      -2.50000000E-01 -3.75000000E-01  2.50000000E-01
                      -1.25000000E-01 -3.75000000E-01  3.75000000E-01
                       3.75000000E-01 -2.50000000E-01  0.00000000E+00
                       5.00000000E-01 -2.50000000E-01  1.25000000E-01
                      -3.75000000E-01 -2.50000000E-01  2.50000000E-01
                      -2.50000000E-01 -2.50000000E-01  3.75000000E-01
                      -1.25000000E-01 -2.50000000E-01  5.00000000E-01
                       2.50000000E-01 -1.25000000E-01  0.00000000E+00
                       3.75000000E-01 -1.25000000E-01  1.25000000E-01
                       5.00000000E-01 -1.25000000E-01  2.50000000E-01
                      -3.75000000E-01 -1.25000000E-01  3.75000000E-01
                      -2.50000000E-01 -1.25000000E-01  5.00000000E-01
                      -1.25000000E-01 -1.25000000E-01 -3.75000000E-01
                      -1.25000000E-01  0.00000000E+00  0.00000000E+00
                      -2.50000000E-01  1.25000000E-01  0.00000000E+00
                      -1.25000000E-01  1.25000000E-01  1.25000000E-01
                      -3.75000000E-01  2.50000000E-01  0.00000000E+00
                      -2.50000000E-01  2.50000000E-01  1.25000000E-01
                      -1.25000000E-01  2.50000000E-01  2.50000000E-01
                       5.00000000E-01  3.75000000E-01  0.00000000E+00
                      -3.75000000E-01  3.75000000E-01  1.25000000E-01
                      -2.50000000E-01  3.75000000E-01  2.50000000E-01
                      -1.25000000E-01  3.75000000E-01  3.75000000E-01
                       3.75000000E-01  5.00000000E-01  0.00000000E+00
                       5.00000000E-01  5.00000000E-01  1.25000000E-01
                      -3.75000000E-01  5.00000000E-01  2.50000000E-01
                      -2.50000000E-01  5.00000000E-01  3.75000000E-01
                      -1.25000000E-01  5.00000000E-01  5.00000000E-01
                       2.50000000E-01 -3.75000000E-01  0.00000000E+00
                       outvar_i_n : Printing only first  50 k-points.
           kptopt           3
         kptrlatt        4   -4    4     -4    4    4     -4   -4    4
          kptrlen      4.13383250E+01
P           mkmem          19
P          mkqmem          19
P          mk1mem          19
            natom           2
            nband           4
           ndtset          19
            ngfft          30      30      30
             nkpt         256
             nqpt           1
            nstep          40
             nsym           1
           ntypat           1
              occ      2.000000  2.000000  2.000000  2.000000
        optdriver           1
              qpt1    -2.50000000E-01  2.50000000E-01  2.50000000E-01
              qpt2     0.00000000E+00  5.00000000E-01  2.50000000E-01
              qpt3     2.50000000E-01  5.00000000E-01  2.50000000E-01
              qpt4     5.00000000E-01  5.00000000E-01  2.50000000E-01
              qpt5    -2.50000000E-01  5.00000000E-01  2.50000000E-01
              qpt6     0.00000000E+00 -2.50000000E-01  2.50000000E-01
              qpt7     2.50000000E-01 -2.50000000E-01  2.50000000E-01
              qpt8     5.00000000E-01 -2.50000000E-01  2.50000000E-01
              qpt9    -2.50000000E-01 -2.50000000E-01  2.50000000E-01
              qpt10    0.00000000E+00  0.00000000E+00  5.00000000E-01
              qpt11    2.50000000E-01  0.00000000E+00  5.00000000E-01
              qpt12    5.00000000E-01  0.00000000E+00  5.00000000E-01
              qpt13    0.00000000E+00  2.50000000E-01  5.00000000E-01
              qpt14    2.50000000E-01  2.50000000E-01  5.00000000E-01
              qpt15    5.00000000E-01  2.50000000E-01  5.00000000E-01
              qpt16   -2.50000000E-01  2.50000000E-01  5.00000000E-01
              qpt17    0.00000000E+00  5.00000000E-01  5.00000000E-01
              qpt18    2.50000000E-01  5.00000000E-01  5.00000000E-01
              qpt19    5.00000000E-01  5.00000000E-01  5.00000000E-01
          rfatpol           1       2
            rfdir           1       1       1
           rfphon           1
            rprim      7.0710678120E-01  7.0710678117E-01  6.9650239756E-11
                       3.1527828871E-11  7.0710678117E-01  7.0710678120E-01
                       7.0710678119E-01 -2.1777182160E-11  7.0710678119E-01
           shiftk      5.00000000E-01  5.00000000E-01  5.00000000E-01
          spgroup           1
           tolvrs      1.00000000E-08
            typat      1  1
              wtk        0.00391    0.00391    0.00391    0.00391    0.00391    0.00391
                         0.00391    0.00391    0.00391    0.00391    0.00391    0.00391
                         0.00391    0.00391    0.00391    0.00391    0.00391    0.00391
                         0.00391    0.00391    0.00391    0.00391    0.00391    0.00391
                         0.00391    0.00391    0.00391    0.00391    0.00391    0.00391
                         0.00391    0.00391    0.00391    0.00391    0.00391    0.00391
                         0.00391    0.00391    0.00391    0.00391    0.00391    0.00391
                         0.00391    0.00391    0.00391    0.00391    0.00391    0.00391
                         0.00391    0.00391
                       outvars : Printing only first  50 k-points.
           xangst      1.1638012194E-10  8.8647964307E-11 -3.2058171592E-12
                       1.3672062155E+00  1.3672062153E+00  1.3672062157E+00
            xcart      2.1992655779E-10  1.6752037478E-10 -6.0581164630E-12
                       2.5836453144E+00  2.5836453142E+00  2.5836453148E+00
             xred      3.8076535396E-11 -5.6571522372E-12  4.4847551496E-12
                       2.4999999996E-01  2.5000000001E-01  2.5000000000E-01
            znucl       14.00000
 
================================================================================
 
 chkinp: Checking input parameters for consistency, jdtset=   1.
 
 chkinp: Checking input parameters for consistency, jdtset=   2.
 
 chkinp: Checking input parameters for consistency, jdtset=   3.
 
 chkinp: Checking input parameters for consistency, jdtset=   4.
 
 chkinp: Checking input parameters for consistency, jdtset=   5.
 
 chkinp: Checking input parameters for consistency, jdtset=   6.
 
 chkinp: Checking input parameters for consistency, jdtset=   7.
 
 chkinp: Checking input parameters for consistency, jdtset=   8.
 
 chkinp: Checking input parameters for consistency, jdtset=   9.
 
 chkinp: Checking input parameters for consistency, jdtset=  10.
 
[...]
- newkpt: read input wf with ikpt,npw=  13     840, make ikpt,npw=  13     840
- newkpt: read input wf with ikpt,npw=  14     846, make ikpt,npw=  14     846
- newkpt: read input wf with ikpt,npw=  15     841, make ikpt,npw=  15     841
- newkpt: read input wf with ikpt,npw=  16     845, make ikpt,npw=  16     845
- newkpt: read input wf with ikpt,npw=  17     837, make ikpt,npw=  17     837
- newkpt: read input wf with ikpt,npw=  18     842, make ikpt,npw=  18     842
- newkpt: read input wf with ikpt,npw=  19     842, make ikpt,npw=  19     842
 getmpw: optimal value of mpw= 863
 inwffil: examining the header of disk file: ddbi_DS1_WFK
 
================================================================================
 
          - hdr_check: checking restart file header for consistency -
 
 
        current calculation                         restart file
        -------------------                         ------------
 
  calculation expects a wf_planewave    |  input file contains a wf_planewave
. ABINIT  code version 8.11.1           |  ABINIT  code version 8.11.1
. date 20200123 bantot 1024 natom    2  |  date 20200122 bantot  512 natom    2
  nkpt 256 nsym  1 ngfft  30,  30,  30  |  nkpt 128 nsym  1 ngfft  30,  30,  30
  ntypat  1 ecut_eff  16.0000000        |  ntypat  1 ecut_eff  16.0000000
  usepaw  0                             |  usepaw  0
  usewvl  0                             |  usewvl  0
  rprimd:                               |  rprimd:
     5.1672906   5.1672906   0.0000000  |     5.1672906   5.1672906   0.0000000
     0.0000000   5.1672906   5.1672906  |     0.0000000   5.1672906   5.1672906
     5.1672906  -0.0000000   5.1672906  |     5.1672906  -0.0000000   5.1672906
 
--- !COMMENT
src_file: m_hdr.F90
src_line: 3943
message: |
    input nkpt=256 not equal disk file nkpt=128
...
 
  symafm:                               |  symafm:
    1                                   |    1
  symrel:                               |  symrel:
    1  0  0  0  1  0  0  0  1           |    1  0  0  0  1  0  0  0  1
  typat:                                |  typat:
    1  1                                |    1  1
  so_psp  :                             |  so_psp  :
    1                                   |    1
 
--- !COMMENT
src_file: m_hdr.F90
src_line: 4191
message: |
    input kptopt = 3  /= disk file kptopt = 1
...
 
  tnons:                                |  tnons:
     0.0000000   0.0000000   0.0000000  |     0.0000000   0.0000000   0.0000000
   znucl:                               |   znucl:
   14.00                                |   14.00
  pseudopotential atom type  1:         |  pseudopotential atom type  1:
  pspso   0 pspxc  11                   |  pspso   0 pspxc  11
  pspdat 170510 pspcod    8 zion   4.0  |  pspdat 170510 pspcod    8 zion   4.0
  xred:                                 |  xred:
     0.0000000  -0.0000000   0.0000000  |     0.0000000  -0.0000000   0.0000000
     0.2500000   0.2500000   0.2500000  |     0.2500000   0.2500000   0.2500000
 
--- !COMMENT
src_file: m_hdr.F90
src_line: 4474
message: |
    Restart of self-consistent calculation need translated wavefunctions.
...
 
  Indeed, critical differences between current calculation and
  restart file have been detected in:
        * the number, position, or weight of k-points
        * the format of wavefunctions (istwfk)
================================================================================
-inwffil : will read wavefunctions from disk file ddbi_DS1_WFK
 initwf: disk file gives npw= 842 nband= 4 for kpt number= 26
 initwf: 4 bands have been initialized from disk
 initwf: disk file gives npw= 842 nband= 4 for kpt number= 31
 initwf: 4 bands have been initialized from disk
 initwf: disk file gives npw= 842 nband= 4 for kpt number= 32
 initwf: 4 bands have been initialized from disk
 initwf: disk file gives npw= 842 nband= 4 for kpt number= 43
 initwf: 4 bands have been initialized from disk
 initwf: disk file gives npw= 842 nband= 4 for kpt number= 47
 initwf: 4 bands have been initialized from disk
 initwf: disk file gives npw= 841 nband= 4 for kpt number= 48
 initwf: 4 bands have been initialized from disk
- newkpt: read input wf with ikpt,npw= 108     841, make ikpt,npw=   1     841
- newkpt: read input wf with ikpt,npw= 105     845, make ikpt,npw=   2     845
- newkpt: read input wf with ikpt,npw= 104     842, make ikpt,npw=   3     842
- newkpt: read input wf with ikpt,npw=  26     842, make ikpt,npw=   4     842
- newkpt: read input wf with ikpt,npw=  31     842, make ikpt,npw=   5     842
- newkpt: read input wf with ikpt,npw=  32     842, make ikpt,npw=   6     842
- newkpt: read input wf with ikpt,npw= 116     840, make ikpt,npw=   7     840
- newkpt: read input wf with ikpt,npw= 117     837, make ikpt,npw=   8     837
- newkpt: read input wf with ikpt,npw= 118     837, make ikpt,npw=   9     837
- newkpt: read input wf with ikpt,npw=  63     856, make ikpt,npw=  10     856
- newkpt: read input wf with ikpt,npw=  62     840, make ikpt,npw=  11     840
- newkpt: read input wf with ikpt,npw=  61     837, make ikpt,npw=  12     837
- newkpt: read input wf with ikpt,npw=  60     837, make ikpt,npw=  13     837
- newkpt: read input wf with ikpt,npw=  43     842, make ikpt,npw=  14     842
- newkpt: read input wf with ikpt,npw=  47     842, make ikpt,npw=  15     842
- newkpt: read input wf with ikpt,npw=  48     841, make ikpt,npw=  16     841
- newkpt: read input wf with ikpt,npw=  52     842, make ikpt,npw=  17     842
- newkpt: read input wf with ikpt,npw=  53     842, make ikpt,npw=  18     842
- newkpt: read input wf with ikpt,npw=  54     845, make ikpt,npw=  19     845
 Initialisation of the first-order wave-functions :
  ireadwf=   0
 wfconv:     4 bands set=0 with npw=    841, for ikpt=   1
 wfconv:     4 bands set=0 with npw=    845, for ikpt=   2
 wfconv:     4 bands set=0 with npw=    842, for ikpt=   3
 wfconv:     4 bands set=0 with npw=    842, for ikpt=   4
 wfconv:     4 bands set=0 with npw=    842, for ikpt=   5
 wfconv:     4 bands set=0 with npw=    842, for ikpt=   6
 wfconv:     4 bands set=0 with npw=    840, for ikpt=   7
 wfconv:     4 bands set=0 with npw=    837, for ikpt=   8
 wfconv:     4 bands set=0 with npw=    837, for ikpt=   9
 wfconv:     4 bands set=0 with npw=    856, for ikpt=  10
 wfconv:     4 bands set=0 with npw=    840, for ikpt=  11
 wfconv:     4 bands set=0 with npw=    837, for ikpt=  12
 wfconv:     4 bands set=0 with npw=    837, for ikpt=  13
 wfconv:     4 bands set=0 with npw=    842, for ikpt=  14
 wfconv:     4 bands set=0 with npw=    842, for ikpt=  15
 wfconv:     4 bands set=0 with npw=    841, for ikpt=  16
 wfconv:     4 bands set=0 with npw=    842, for ikpt=  17
 wfconv:     4 bands set=0 with npw=    842, for ikpt=  18
 wfconv:     4 bands set=0 with npw=    845, for ikpt=  19
 Initializing rhor1 from valence densities taken from pseudopotential files
 
 getcut: wavevector=  0.0000  0.0000  0.0000  ngfft=  30  30  30
         ecut(hartree)=     16.000   => boxcut(ratio)=   2.28244
 
 getcut : COMMENT -
  Note that boxcut > 2.2 ; recall that boxcut=Gcut(box)/Gcut(sphere) = 2
  is sufficient for exact treatment of convolution.
  Such a large boxcut is a waste : you could raise ecut
  e.g. ecut=   20.838215 Hartrees makes boxcut=2
 
 
 ITER STEP NUMBER     1
-ETOT  1   7.6054923515110     -8.416E+01 5.628E-01 1.477E+03
 
 Simple mixing update:
  residual square of the potential:    307.808603638286
 dfpt_scfcv: previous iteration took  0.51 [s]
 
 ITER STEP NUMBER     2
 ETOT  2   7.1140295300397     -4.915E-01 1.230E-02 3.858E+01
 
 Pulay update with  1 previous iterations:
 mixing of old trial potential: alpha(m:m-4)=  0.908      0.918E-01
 dfpt_scfcv: previous iteration took  0.52 [s]
 
 ITER STEP NUMBER     3
 ETOT  3   7.1023462794333     -1.168E-02 3.872E-04 3.247E+00
 
 Pulay update with  2 previous iterations:
 mixing of old trial potential: alpha(m:m-4)=   1.03      0.678E-03 -0.307E-01
 dfpt_scfcv: previous iteration took  0.52 [s]
 
 ITER STEP NUMBER     4
 ETOT  4   7.1016830091361     -6.633E-04 1.667E-05 1.970E-01
 
 Pulay update with  3 previous iterations:
 mixing of old trial potential: alpha(m:m-4)=   1.02      0.376E-01 -0.502E-01 -0.930E-02
 dfpt_scfcv: previous iteration took  0.52 [s]
 
 ITER STEP NUMBER     5
 ETOT  5   7.1016405590282     -4.245E-05 7.102E-07 7.415E-03
 
 Pulay update with  4 previous iterations:
 mixing of old trial potential: alpha(m:m-4)=   1.20     -0.145     -0.670E-01  0.882E-02  0.285E-02
 dfpt_scfcv: previous iteration took  0.52 [s]
 
 ITER STEP NUMBER     6
 ETOT  6   7.1016390923283     -1.467E-06 3.025E-08 3.880E-04
 
 Pulay update with  5 previous iterations:
 mixing of old trial potential: alpha(m:m-4)=   1.11     -0.917E-01 -0.271E-01  0.656E-02  0.534E-03
 dfpt_scfcv: previous iteration took  0.52 [s]
 
 ITER STEP NUMBER     7
 ETOT  7   7.1016390199271     -7.240E-08 1.566E-09 8.967E-06
 
 Pulay update with  6 previous iterations:
 mixing of old trial potential: alpha(m:m-4)=   1.11     -0.615E-01 -0.565E-01  0.954E-02  0.305E-02
 dfpt_scfcv: previous iteration took  0.52 [s]
 
 ITER STEP NUMBER     8
 ETOT  8   7.1016390177637     -2.163E-09 6.398E-11 3.297E-07
 
 Pulay update with  7 previous iterations:
 mixing of old trial potential: alpha(m:m-4)=   1.09     -0.623E-01 -0.278E-01  0.517E-02  0.112E-04
 dfpt_scfcv: previous iteration took  0.52 [s]
 
 ITER STEP NUMBER     9
 ETOT  9   7.1016390176928     -7.086E-11 4.513E-12 1.100E-08
 
 Pulay update with  7 previous iterations:
 mixing of old trial potential: alpha(m:m-4)=   1.12     -0.960E-01 -0.279E-01  0.407E-02  0.725E-03
 dfpt_scfcv: previous iteration took  0.52 [s]
 
 ITER STEP NUMBER    10
 ETOT 10   7.1016390176903     -2.515E-12 4.025E-13 5.600E-10
 
 At SCF step   10       vres2   =  5.60E-10 < tolvrs=  1.00E-08 =>converged.
 
   fftdatar_write: About to write data to: ddbo_DS1_DEN6 with iomode: IO_MODE_FORTRAN
 IO operation completed. cpu:  0.00 [s] , wall:  0.00 [s]
 
   fftdatar_write: About to write data to: ddbo_DS1_POT6 with iomode: IO_MODE_FORTRAN
 IO operation completed. cpu:  0.00 [s] , wall:  0.00 [s]
================================================================================
 
 ----iterations are completed or convergence reached----
 
 Mean square residual over all n,k,spin=   23.351E-16; max=  40.248E-14
  -0.1250 -0.2500  0.0000    1  4.21067E-15 kpt; spin; max resid(k); each band:
  3.59E-16 1.37E-15 1.66E-15 4.21E-15
  -0.2500 -0.1250  0.0000    1  2.20605E-15 kpt; spin; max resid(k); each band:
  1.23E-15 1.28E-15 2.21E-15 1.74E-15
  -0.1250 -0.1250  0.1250    1  4.30073E-15 kpt; spin; max resid(k); each band:
  1.38E-15 1.03E-15 1.66E-15 4.30E-15
  -0.1250  0.5000  0.0000    1  2.57988E-15 kpt; spin; max resid(k); each band:
  3.76E-16 8.19E-16 2.21E-15 2.58E-15
  -0.2500 -0.3750  0.0000    1  2.17280E-15 kpt; spin; max resid(k); each band:
  5.70E-16 3.52E-16 2.17E-15 2.11E-15
  -0.1250 -0.3750  0.1250    1  3.11286E-15 kpt; spin; max resid(k); each band:
  5.66E-16 6.05E-16 1.49E-15 3.11E-15
  -0.3750 -0.2500  0.0000    1  2.91809E-15 kpt; spin; max resid(k); each band:
  3.25E-16 6.41E-16 2.92E-15 2.52E-15
  -0.2500 -0.2500  0.1250    1  3.99767E-15 kpt; spin; max resid(k); each band:
  5.01E-16 6.60E-16 4.00E-15 2.37E-15
  -0.1250 -0.2500  0.2500    1  4.50064E-15 kpt; spin; max resid(k); each band:
  5.83E-16 8.22E-16 3.37E-15 4.50E-15
   0.5000 -0.1250  0.0000    1  3.71187E-15 kpt; spin; max resid(k); each band:
  2.30E-16 6.04E-16 1.31E-15 3.71E-15
  -0.3750 -0.1250  0.1250    1  5.92239E-15 kpt; spin; max resid(k); each band:
  2.45E-16 7.08E-16 2.39E-15 5.92E-15
  -0.2500 -0.1250  0.2500    1  7.30119E-15 kpt; spin; max resid(k); each band:
  3.23E-16 9.64E-16 3.40E-15 7.30E-15
  -0.1250 -0.1250  0.3750    1  6.76253E-15 kpt; spin; max resid(k); each band:
  3.81E-16 9.78E-16 5.07E-15 6.76E-15
  -0.1250  0.2500  0.0000    1  4.61157E-15 kpt; spin; max resid(k); each band:
  2.42E-16 1.03E-15 4.61E-15 2.69E-15
  -0.2500  0.3750  0.0000    1  2.83278E-15 kpt; spin; max resid(k); each band:
  2.83E-16 5.34E-16 2.17E-15 2.83E-15
  -0.1250  0.3750  0.1250    1  2.51101E-15 kpt; spin; max resid(k); each band:
  1.68E-16 8.87E-16 2.51E-15 2.31E-15
  -0.3750  0.5000  0.0000    1  2.42348E-15 kpt; spin; max resid(k); each band:
  4.78E-16 3.85E-16 2.25E-15 2.42E-15
  -0.2500  0.5000  0.1250    1  3.45269E-15 kpt; spin; max resid(k); each band:
  5.20E-16 3.29E-16 2.13E-15 3.45E-15
  -0.1250  0.5000  0.2500    1  3.39861E-15 kpt; spin; max resid(k); each band:
  4.90E-16 5.18E-16 1.61E-15 3.40E-15
   0.5000 -0.3750  0.0000    1  2.94153E-15 kpt; spin; max resid(k); each band:
  5.61E-16 4.13E-16 1.11E-15 2.94E-15
  -0.3750 -0.3750  0.1250    1  4.61382E-15 kpt; spin; max resid(k); each band:
  7.09E-16 4.82E-16 4.61E-15 3.77E-15
  -0.2500 -0.3750  0.2500    1  7.64205E-15 kpt; spin; max resid(k); each band:
  7.63E-16 5.11E-16 3.30E-15 7.64E-15
  -0.1250 -0.3750  0.3750    1  6.78638E-15 kpt; spin; max resid(k); each band:
  4.19E-16 6.32E-16 1.79E-15 6.79E-15
   0.3750 -0.2500  0.0000    1  2.91296E-15 kpt; spin; max resid(k); each band:
  3.58E-16 7.96E-16 8.95E-16 2.91E-15
   0.5000 -0.2500  0.1250    1  4.23384E-15 kpt; spin; max resid(k); each band:
  3.96E-16 5.06E-16 1.24E-15 4.23E-15
  -0.3750 -0.2500  0.2500    1  3.99853E-15 kpt; spin; max resid(k); each band:
  6.57E-16 6.01E-16 4.00E-15 1.34E-15
  -0.2500 -0.2500  0.3750    1  3.53129E-15 kpt; spin; max resid(k); each band:
  5.88E-16 1.04E-15 3.42E-15 3.53E-15
  -0.1250 -0.2500  0.5000    1  5.93354E-15 kpt; spin; max resid(k); each band:
  3.16E-16 1.08E-15 2.86E-15 5.93E-15
   0.2500 -0.1250  0.0000    1  4.06929E-15 kpt; spin; max resid(k); each band:
  3.72E-16 1.88E-15 2.96E-15 4.07E-15
   0.3750 -0.1250  0.1250    1  3.55361E-15 kpt; spin; max resid(k); each band:
  2.95E-16 9.26E-16 1.24E-15 3.55E-15
   0.5000 -0.1250  0.2500    1  2.63358E-15 kpt; spin; max resid(k); each band:
  3.15E-16 4.52E-16 1.98E-15 2.63E-15
  -0.3750 -0.1250  0.3750    1  2.99397E-15 kpt; spin; max resid(k); each band:
  4.22E-16 4.16E-16 2.99E-15 1.44E-15
  -0.2500 -0.1250  0.5000    1  3.15464E-15 kpt; spin; max resid(k); each band:
  5.93E-16 6.30E-16 3.15E-15 9.83E-16
  -0.1250 -0.1250 -0.3750    1  3.12056E-15 kpt; spin; max resid(k); each band:
  4.15E-16 9.11E-16 3.12E-15 1.57E-15
  -0.1250  0.0000  0.0000    1  3.94903E-15 kpt; spin; max resid(k); each band:
  3.16E-16 3.70E-15 3.93E-15 3.95E-15
  -0.2500  0.1250  0.0000    1  3.65574E-15 kpt; spin; max resid(k); each band:
  1.57E-16 1.10E-15 3.66E-15 2.67E-15
  -0.1250  0.1250  0.1250    1  4.24511E-15 kpt; spin; max resid(k); each band:
  2.69E-16 1.43E-15 1.82E-15 4.25E-15
  -0.3750  0.2500  0.0000    1  3.01724E-15 kpt; spin; max resid(k); each band:
  3.10E-16 5.23E-16 2.41E-15 3.02E-15
  -0.2500  0.2500  0.1250    1  4.12086E-15 kpt; spin; max resid(k); each band:
  2.08E-16 7.13E-16 4.12E-15 1.90E-15
  -0.1250  0.2500  0.2500    1  3.79793E-15 kpt; spin; max resid(k); each band:
  2.41E-16 6.49E-16 3.80E-15 2.47E-15
   0.5000  0.3750  0.0000    1  3.13200E-15 kpt; spin; max resid(k); each band:
  4.27E-16 6.11E-16 3.13E-15 3.03E-15
  -0.3750  0.3750  0.1250    1  3.73083E-15 kpt; spin; max resid(k); each band:
  3.85E-16 7.89E-16 3.73E-15 3.38E-15
  -0.2500  0.3750  0.2500    1  4.38388E-15 kpt; spin; max resid(k); each band:
  4.98E-16 6.37E-16 4.38E-15 1.83E-15
  -0.1250  0.3750  0.3750    1  5.18868E-15 kpt; spin; max resid(k); each band:
  5.67E-16 3.93E-16 5.19E-15 3.41E-15
   0.3750  0.5000  0.0000    1  2.64764E-15 kpt; spin; max resid(k); each band:
  3.58E-16 5.92E-16 1.12E-15 2.65E-15
   0.5000  0.5000  0.1250    1  3.37550E-15 kpt; spin; max resid(k); each band:
  5.25E-16 7.66E-16 3.38E-15 2.29E-15
  -0.3750  0.5000  0.2500    1  3.71992E-15 kpt; spin; max resid(k); each band:
  4.41E-16 8.38E-16 3.72E-15 2.96E-15
  -0.2500  0.5000  0.3750    1  4.02402E-15 kpt; spin; max resid(k); each band:
  4.06E-16 6.67E-16 4.02E-15 2.27E-15
  -0.1250  0.5000  0.5000    1  3.71693E-15 kpt; spin; max resid(k); each band:
  5.33E-16 6.02E-16 3.72E-15 2.53E-15
   0.2500 -0.3750  0.0000    1  2.14842E-15 kpt; spin; max resid(k); each band:
  2.91E-16 1.03E-15 1.45E-15 2.15E-15
 outwf : prtvol=0 or 1, do not print more k-points.
 
 
   outwf: writing wavefunctions to: ddbo_DS1_1WF6 with iomode: IO_MODE_FORTRAN_MASTER
 WFK output completed. cpu:  0.03 [s] , wall:  0.04 [s]
 
 Thirteen components of 2nd-order total energy (hartree) are
 1,2,3: 0th-order hamiltonian combined with 1st-order wavefunctions
     kin0=   8.47242432E+01 eigvalue=  -2.19951682E+00  local=  -5.05863471E+01
 4,5,6: 1st-order hamiltonian combined with 1st and 0th-order wfs
 loc psp =  -6.12783082E+01  Hartree=   2.34796993E+01     xc=  -7.02065820E+00
 note that "loc psp" includes a xc core correction that could be resolved
 7,8,9: eventually, occupation + non-local contributions
    edocc=   0.00000000E+00     enl0=   3.62686166E+01   enl1=  -1.08053765E+02
 1-9 gives the relaxation energy (to be shifted if some occ is /=2.0)
   erelax=  -8.46660366E+01
 10,11,12 Non-relaxation  contributions : frozen-wavefunctions and Ewald
 fr.local=   1.12136234E+01 fr.nonlo=   6.08535694E+01  Ewald=   2.21760006E+01
 dfpt_prtene : non-relax=    9.424319E+01
 13,14 Frozen wf xc core corrections (1) and (2)
 frxc 1  =  -7.98973851E+00  frxc 2 =   5.51422077E+00
 Resulting in :
 2DEtotal=    0.7101639018E+01 Ha. Also 2DEtotal=    0.193245425346E+03 eV
    (2DErelax=   -8.4666036633E+01 Ha. 2DEnonrelax=    9.1767675651E+01 Ha)
    (  non-var. 2DEtotal :    7.1016387993E+00 Ha)
 
================================================================================
 
 ---- first-order wavefunction calculations are completed ----
 
 
 ==> Compute Derivative Database <==
- Creating HDf5 file with MPI-IO support: ddbo_DS1_DDB.nc
 
 phonon wavelength (reduced coordinates) , norm, and energies in hartree
 -0.25 0.25 0.25 1.00
  6.457851791E-04  8.945666817E-04  1.423933294E-03  1.837860188E-03  2.071782622E-03
  2.131784178E-03
 Zero Point Motion energy (sum of freqs/2)=  4.502856071E-03
  efmasval_free_array : enter 
 
================================================================================
== DATASET  2 ==================================================================
-   nproc =   14
 
 
--- !COMMENT
src_file: m_xgScalapack.F90
src_line: 237
message: |
    xgScalapack in auto mode
...
 
 
 getdim_nloc : deduce lmnmax  =  18, lnmax  =   6,
                      lmnmaxso=  18, lnmaxso=   6.
 Exchange-correlation functional for the present dataset will be:
  GGA: Perdew-Burke-Ernzerhof functional - ixc=11
 Citation for XC functional:
  J.P.Perdew, K.Burke, M.Ernzerhof, PRL 77, 3865 (1996)
 
 Unit cell volume ucvol=  2.7594254E+02 bohr^3
 Angles (23,13,12)=  6.00000000E+01  6.00000000E+01  6.00000000E+01 degrees
 setup1 : take into account q-point for computing boxcut.
 
 getcut: wavevector=  0.0000  0.5000  0.2500  ngfft=  30  30  30
         ecut(hartree)=     16.000   => boxcut(ratio)=   2.20572
 
 getcut : COMMENT -
  Note that boxcut > 2.2 ; recall that boxcut=Gcut(box)/Gcut(sphere) = 2
  is sufficient for exact treatment of convolution.
  Such a large boxcut is a waste : you could raise ecut
  e.g. ecut=   19.460745 Hartrees makes boxcut=2
 
 
--- !ERROR
src_file: m_inwffil.F90
src_line: 276
mpi_rank: 0
message: |
    Missing data file: ddbi_DS2_WFK
...
 
--------------------------------------------------------------------------
MPI_ABORT was invoked on rank 6 in communicator MPI_COMM_WORLD 
with errorcode 14.

NOTE: invoking MPI_ABORT causes Open MPI to kill all MPI processes.
You may or may not see output from other processes, depending on
exactly when Open MPI kills them.
--------------------------------------------------------------------------
 
 abi_abort: decision taken to exit ...
forrtl: No such file or directory
