
.Version 8.11.13 of ABINIT 
.(MPI version, prepared for a x86_64_linux_intel14.0 computer) 

.Copyright (C) 1998-2019 ABINIT group . 
 ABINIT comes with ABSOLUTELY NO WARRANTY.
 It is free software, and you are welcome to redistribute it
 under certain conditions (GNU General Public License,
 see ~abinit/COPYING or http://www.gnu.org/copyleft/gpl.txt).

 ABINIT is a project of the Universite Catholique de Louvain,
 Corning Inc. and other collaborators, see ~abinit/doc/developers/contributors.txt .
 Please read https://docs.abinit.org/theory/acknowledgments for suggested
 acknowledgments of the ABINIT effort.
 For more information, see https://www.abinit.org .

.Starting date : Thu 23 Jan 2020.
- ( at 12h07 )
  
- input  file    -> ddb.in
- output file    -> ddb.out
- root for input  files -> ddbi
- root for output files -> ddbo
 
 
 DATASET    1 : space group P1 (#  1); Bravais aP (primitive triclinic)
================================================================================
 Values of the parameters that define the memory need for DATASET  1 (RF).
     intxc =       0      iscf =       7    lmnmax =       6     lnmax =       6
     mgfft =      30  mpssoang =       3    mqgrid =    3001     natom =       2
  nloc_mem =       1    nspden =       1   nspinor =       1    nsppol =       1
      nsym =       1    n1xccc =    2501    ntypat =       1    occopt =       1
   xclevel =       2
-    mband =           4        mffmem =           1         mkmem =          10
-   mkqmem =          10        mk1mem =          10           mpw =         863
      nfft =       27000          nkpt =         256
================================================================================
P This job should need less than                       9.948 Mbytes of memory.
  Rough estimation (10% accuracy) of disk space for files :
_ WF disk file :     13.486 Mbytes ; DEN or POT disk file :      0.208 Mbytes.
================================================================================
 
 
 DATASET    2 : space group P1 (#  1); Bravais aP (primitive triclinic)
================================================================================
 Values of the parameters that define the memory need for DATASET  2 (RF).
     intxc =       0      iscf =       7    lmnmax =       6     lnmax =       6
     mgfft =      30  mpssoang =       3    mqgrid =    3001     natom =       2
  nloc_mem =       1    nspden =       1   nspinor =       1    nsppol =       1
      nsym =       1    n1xccc =    2501    ntypat =       1    occopt =       1
   xclevel =       2
-    mband =           4        mffmem =           1         mkmem =          10
-   mkqmem =          10        mk1mem =          10           mpw =         863
      nfft =       27000          nkpt =         256
================================================================================
P This job should need less than                       9.948 Mbytes of memory.
  Rough estimation (10% accuracy) of disk space for files :
_ WF disk file :     13.486 Mbytes ; DEN or POT disk file :      0.208 Mbytes.
================================================================================
 
 
 DATASET    3 : space group P1 (#  1); Bravais aP (primitive triclinic)
================================================================================
 Values of the parameters that define the memory need for DATASET  3 (RF).
     intxc =       0      iscf =       7    lmnmax =       6     lnmax =       6
     mgfft =      30  mpssoang =       3    mqgrid =    3001     natom =       2
  nloc_mem =       1    nspden =       1   nspinor =       1    nsppol =       1
      nsym =       1    n1xccc =    2501    ntypat =       1    occopt =       1
   xclevel =       2
-    mband =           4        mffmem =           1         mkmem =          10
-   mkqmem =          10        mk1mem =          10           mpw =         863
      nfft =       27000          nkpt =         256
================================================================================
P This job should need less than                       9.948 Mbytes of memory.
  Rough estimation (10% accuracy) of disk space for files :
_ WF disk file :     13.486 Mbytes ; DEN or POT disk file :      0.208 Mbytes.
================================================================================
 
 
 DATASET    4 : space group P1 (#  1); Bravais aP (primitive triclinic)
================================================================================
 Values of the parameters that define the memory need for DATASET  4 (RF).
     intxc =       0      iscf =       7    lmnmax =       6     lnmax =       6
     mgfft =      30  mpssoang =       3    mqgrid =    3001     natom =       2
  nloc_mem =       1    nspden =       1   nspinor =       1    nsppol =       1
      nsym =       1    n1xccc =    2501    ntypat =       1    occopt =       1
   xclevel =       2
-    mband =           4        mffmem =           1         mkmem =          10
-   mkqmem =          10        mk1mem =          10           mpw =         863
      nfft =       27000          nkpt =         256
================================================================================
P This job should need less than                       9.948 Mbytes of memory.
  Rough estimation (10% accuracy) of disk space for files :
_ WF disk file :     13.486 Mbytes ; DEN or POT disk file :      0.208 Mbytes.
================================================================================
 
 
 DATASET    5 : space group P1 (#  1); Bravais aP (primitive triclinic)
================================================================================
 Values of the parameters that define the memory need for DATASET  5 (RF).
     intxc =       0      iscf =       7    lmnmax =       6     lnmax =       6
     mgfft =      30  mpssoang =       3    mqgrid =    3001     natom =       2
  nloc_mem =       1    nspden =       1   nspinor =       1    nsppol =       1
      nsym =       1    n1xccc =    2501    ntypat =       1    occopt =       1
   xclevel =       2
-    mband =           4        mffmem =           1         mkmem =          10
-   mkqmem =          10        mk1mem =          10           mpw =         863
      nfft =       27000          nkpt =         256
================================================================================
P This job should need less than                       9.948 Mbytes of memory.
  Rough estimation (10% accuracy) of disk space for files :
_ WF disk file :     13.486 Mbytes ; DEN or POT disk file :      0.208 Mbytes.
================================================================================
 
 
 DATASET    6 : space group P1 (#  1); Bravais aP (primitive triclinic)
================================================================================
 Values of the parameters that define the memory need for DATASET  6 (RF).
     intxc =       0      iscf =       7    lmnmax =       6     lnmax =       6
     mgfft =      30  mpssoang =       3    mqgrid =    3001     natom =       2
  nloc_mem =       1    nspden =       1   nspinor =       1    nsppol =       1
      nsym =       1    n1xccc =    2501    ntypat =       1    occopt =       1
   xclevel =       2
-    mband =           4        mffmem =           1         mkmem =          10
-   mkqmem =          10        mk1mem =          10           mpw =         863
      nfft =       27000          nkpt =         256
================================================================================
P This job should need less than                       9.948 Mbytes of memory.
  Rough estimation (10% accuracy) of disk space for files :
_ WF disk file :     13.486 Mbytes ; DEN or POT disk file :      0.208 Mbytes.
================================================================================
 
 
 DATASET    7 : space group P1 (#  1); Bravais aP (primitive triclinic)
================================================================================
 Values of the parameters that define the memory need for DATASET  7 (RF).
     intxc =       0      iscf =       7    lmnmax =       6     lnmax =       6
     mgfft =      30  mpssoang =       3    mqgrid =    3001     natom =       2
  nloc_mem =       1    nspden =       1   nspinor =       1    nsppol =       1
      nsym =       1    n1xccc =    2501    ntypat =       1    occopt =       1
   xclevel =       2
-    mband =           4        mffmem =           1         mkmem =          10
-   mkqmem =          10        mk1mem =          10           mpw =         863
      nfft =       27000          nkpt =         256
================================================================================
P This job should need less than                       9.948 Mbytes of memory.
  Rough estimation (10% accuracy) of disk space for files :
_ WF disk file :     13.486 Mbytes ; DEN or POT disk file :      0.208 Mbytes.
================================================================================
 
 
 DATASET    8 : space group P1 (#  1); Bravais aP (primitive triclinic)
================================================================================
 Values of the parameters that define the memory need for DATASET  8 (RF).
     intxc =       0      iscf =       7    lmnmax =       6     lnmax =       6
     mgfft =      30  mpssoang =       3    mqgrid =    3001     natom =       2
  nloc_mem =       1    nspden =       1   nspinor =       1    nsppol =       1
      nsym =       1    n1xccc =    2501    ntypat =       1    occopt =       1
   xclevel =       2
-    mband =           4        mffmem =           1         mkmem =          10
-   mkqmem =          10        mk1mem =          10           mpw =         863
      nfft =       27000          nkpt =         256
================================================================================
P This job should need less than                       9.948 Mbytes of memory.
  Rough estimation (10% accuracy) of disk space for files :
_ WF disk file :     13.486 Mbytes ; DEN or POT disk file :      0.208 Mbytes.
================================================================================
 
 
 DATASET    9 : space group P1 (#  1); Bravais aP (primitive triclinic)
================================================================================
 Values of the parameters that define the memory need for DATASET  9 (RF).
     intxc =       0      iscf =       7    lmnmax =       6     lnmax =       6
     mgfft =      30  mpssoang =       3    mqgrid =    3001     natom =       2
  nloc_mem =       1    nspden =       1   nspinor =       1    nsppol =       1
      nsym =       1    n1xccc =    2501    ntypat =       1    occopt =       1
   xclevel =       2
-    mband =           4        mffmem =           1         mkmem =          10
-   mkqmem =          10        mk1mem =          10           mpw =         863
      nfft =       27000          nkpt =         256
================================================================================
P This job should need less than                       9.948 Mbytes of memory.
  Rough estimation (10% accuracy) of disk space for files :
_ WF disk file :     13.486 Mbytes ; DEN or POT disk file :      0.208 Mbytes.
================================================================================
 
 
 DATASET   10 : space group P1 (#  1); Bravais aP (primitive triclinic)
================================================================================
 Values of the parameters that define the memory need for DATASET 10 (RF).
     intxc =       0      iscf =       7    lmnmax =       6     lnmax =       6
     mgfft =      30  mpssoang =       3    mqgrid =    3001     natom =       2
  nloc_mem =       1    nspden =       1   nspinor =       1    nsppol =       1
      nsym =       1    n1xccc =    2501    ntypat =       1    occopt =       1
   xclevel =       2
-    mband =           4        mffmem =           1         mkmem =          10
-   mkqmem =          10        mk1mem =          10           mpw =         863
      nfft =       27000          nkpt =         256
================================================================================
P This job should need less than                       9.948 Mbytes of memory.
  Rough estimation (10% accuracy) of disk space for files :
_ WF disk file :     13.486 Mbytes ; DEN or POT disk file :      0.208 Mbytes.
================================================================================
 
 
 DATASET   11 : space group P1 (#  1); Bravais aP (primitive triclinic)
================================================================================
 Values of the parameters that define the memory need for DATASET 11 (RF).
     intxc =       0      iscf =       7    lmnmax =       6     lnmax =       6
     mgfft =      30  mpssoang =       3    mqgrid =    3001     natom =       2
  nloc_mem =       1    nspden =       1   nspinor =       1    nsppol =       1
      nsym =       1    n1xccc =    2501    ntypat =       1    occopt =       1
   xclevel =       2
-    mband =           4        mffmem =           1         mkmem =          10
-   mkqmem =          10        mk1mem =          10           mpw =         863
      nfft =       27000          nkpt =         256
================================================================================
P This job should need less than                       9.948 Mbytes of memory.
  Rough estimation (10% accuracy) of disk space for files :
_ WF disk file :     13.486 Mbytes ; DEN or POT disk file :      0.208 Mbytes.
================================================================================
 
 
 DATASET   12 : space group P1 (#  1); Bravais aP (primitive triclinic)
================================================================================
 Values of the parameters that define the memory need for DATASET 12 (RF).
     intxc =       0      iscf =       7    lmnmax =       6     lnmax =       6
     mgfft =      30  mpssoang =       3    mqgrid =    3001     natom =       2
  nloc_mem =       1    nspden =       1   nspinor =       1    nsppol =       1
      nsym =       1    n1xccc =    2501    ntypat =       1    occopt =       1
   xclevel =       2
-    mband =           4        mffmem =           1         mkmem =          10
-   mkqmem =          10        mk1mem =          10           mpw =         863
      nfft =       27000          nkpt =         256
================================================================================
P This job should need less than                       9.948 Mbytes of memory.
  Rough estimation (10% accuracy) of disk space for files :
_ WF disk file :     13.486 Mbytes ; DEN or POT disk file :      0.208 Mbytes.
================================================================================
 
 
 DATASET   13 : space group P1 (#  1); Bravais aP (primitive triclinic)
================================================================================
 Values of the parameters that define the memory need for DATASET 13 (RF).
     intxc =       0      iscf =       7    lmnmax =       6     lnmax =       6
     mgfft =      30  mpssoang =       3    mqgrid =    3001     natom =       2
  nloc_mem =       1    nspden =       1   nspinor =       1    nsppol =       1
      nsym =       1    n1xccc =    2501    ntypat =       1    occopt =       1
   xclevel =       2
-    mband =           4        mffmem =           1         mkmem =          10
-   mkqmem =          10        mk1mem =          10           mpw =         863
      nfft =       27000          nkpt =         256
================================================================================
P This job should need less than                       9.948 Mbytes of memory.
  Rough estimation (10% accuracy) of disk space for files :
_ WF disk file :     13.486 Mbytes ; DEN or POT disk file :      0.208 Mbytes.
================================================================================
 
 
 DATASET   14 : space group P1 (#  1); Bravais aP (primitive triclinic)
================================================================================
 Values of the parameters that define the memory need for DATASET 14 (RF).
     intxc =       0      iscf =       7    lmnmax =       6     lnmax =       6
     mgfft =      30  mpssoang =       3    mqgrid =    3001     natom =       2
  nloc_mem =       1    nspden =       1   nspinor =       1    nsppol =       1
      nsym =       1    n1xccc =    2501    ntypat =       1    occopt =       1
   xclevel =       2
-    mband =           4        mffmem =           1         mkmem =          10
-   mkqmem =          10        mk1mem =          10           mpw =         863
      nfft =       27000          nkpt =         256
================================================================================
P This job should need less than                       9.948 Mbytes of memory.
  Rough estimation (10% accuracy) of disk space for files :
_ WF disk file :     13.486 Mbytes ; DEN or POT disk file :      0.208 Mbytes.
================================================================================
 
 
 DATASET   15 : space group P1 (#  1); Bravais aP (primitive triclinic)
================================================================================
 Values of the parameters that define the memory need for DATASET 15 (RF).
     intxc =       0      iscf =       7    lmnmax =       6     lnmax =       6
     mgfft =      30  mpssoang =       3    mqgrid =    3001     natom =       2
  nloc_mem =       1    nspden =       1   nspinor =       1    nsppol =       1
      nsym =       1    n1xccc =    2501    ntypat =       1    occopt =       1
   xclevel =       2
-    mband =           4        mffmem =           1         mkmem =          10
-   mkqmem =          10        mk1mem =          10           mpw =         863
      nfft =       27000          nkpt =         256
================================================================================
P This job should need less than                       9.948 Mbytes of memory.
  Rough estimation (10% accuracy) of disk space for files :
_ WF disk file :     13.486 Mbytes ; DEN or POT disk file :      0.208 Mbytes.
================================================================================
 
 
 DATASET   16 : space group P1 (#  1); Bravais aP (primitive triclinic)
================================================================================
 Values of the parameters that define the memory need for DATASET 16 (RF).
     intxc =       0      iscf =       7    lmnmax =       6     lnmax =       6
     mgfft =      30  mpssoang =       3    mqgrid =    3001     natom =       2
  nloc_mem =       1    nspden =       1   nspinor =       1    nsppol =       1
      nsym =       1    n1xccc =    2501    ntypat =       1    occopt =       1
   xclevel =       2
-    mband =           4        mffmem =           1         mkmem =          10
-   mkqmem =          10        mk1mem =          10           mpw =         863
      nfft =       27000          nkpt =         256
================================================================================
P This job should need less than                       9.948 Mbytes of memory.
  Rough estimation (10% accuracy) of disk space for files :
_ WF disk file :     13.486 Mbytes ; DEN or POT disk file :      0.208 Mbytes.
================================================================================
 
 
 DATASET   17 : space group P1 (#  1); Bravais aP (primitive triclinic)
================================================================================
 Values of the parameters that define the memory need for DATASET 17 (RF).
     intxc =       0      iscf =       7    lmnmax =       6     lnmax =       6
     mgfft =      30  mpssoang =       3    mqgrid =    3001     natom =       2
  nloc_mem =       1    nspden =       1   nspinor =       1    nsppol =       1
      nsym =       1    n1xccc =    2501    ntypat =       1    occopt =       1
   xclevel =       2
-    mband =           4        mffmem =           1         mkmem =          10
-   mkqmem =          10        mk1mem =          10           mpw =         863
      nfft =       27000          nkpt =         256
================================================================================
P This job should need less than                       9.948 Mbytes of memory.
  Rough estimation (10% accuracy) of disk space for files :
_ WF disk file :     13.486 Mbytes ; DEN or POT disk file :      0.208 Mbytes.
================================================================================
 
 
 DATASET   18 : space group P1 (#  1); Bravais aP (primitive triclinic)
================================================================================
 Values of the parameters that define the memory need for DATASET 18 (RF).
     intxc =       0      iscf =       7    lmnmax =       6     lnmax =       6
     mgfft =      30  mpssoang =       3    mqgrid =    3001     natom =       2
  nloc_mem =       1    nspden =       1   nspinor =       1    nsppol =       1
      nsym =       1    n1xccc =    2501    ntypat =       1    occopt =       1
   xclevel =       2
-    mband =           4        mffmem =           1         mkmem =          10
-   mkqmem =          10        mk1mem =          10           mpw =         863
      nfft =       27000          nkpt =         256
================================================================================
P This job should need less than                       9.948 Mbytes of memory.
  Rough estimation (10% accuracy) of disk space for files :
_ WF disk file :     13.486 Mbytes ; DEN or POT disk file :      0.208 Mbytes.
================================================================================
 
 
 DATASET   19 : space group P1 (#  1); Bravais aP (primitive triclinic)
================================================================================
 Values of the parameters that define the memory need for DATASET 19 (RF).
     intxc =       0      iscf =       7    lmnmax =       6     lnmax =       6
     mgfft =      30  mpssoang =       3    mqgrid =    3001     natom =       2
  nloc_mem =       1    nspden =       1   nspinor =       1    nsppol =       1
      nsym =       1    n1xccc =    2501    ntypat =       1    occopt =       1
   xclevel =       2
-    mband =           4        mffmem =           1         mkmem =          10
-   mkqmem =          10        mk1mem =          10           mpw =         863
      nfft =       27000          nkpt =         256
================================================================================
P This job should need less than                       9.948 Mbytes of memory.
  Rough estimation (10% accuracy) of disk space for files :
_ WF disk file :     13.486 Mbytes ; DEN or POT disk file :      0.208 Mbytes.
================================================================================
 
--------------------------------------------------------------------------------
------------- Echo of variables that govern the present computation ------------
--------------------------------------------------------------------------------
-
- outvars: echo of selected default values                                      
-   iomode0 =  0 , fftalg0 =312 , wfoptalg0 =  0
-
- outvars: echo of global parameters not present in the input file              
-  max_nthreads =    0
-
 -outvars: echo values of preprocessed input variables --------
            acell      7.3076524878E+00  7.3076524882E+00  7.3076524889E+00 Bohr
              amu      2.80855000E+01
           diemac      1.20000000E+01
             ecut      1.60000000E+01 Hartree
-          fftalg         312
           irdwfk           1
              ixc          11
           jdtset        1    2    3    4    5    6    7    8    9   10
                        11   12   13   14   15   16   17   18   19
              kpt     -1.25000000E-01 -2.50000000E-01  0.00000000E+00
                      -2.50000000E-01 -1.25000000E-01  0.00000000E+00
                      -1.25000000E-01 -1.25000000E-01  1.25000000E-01
                      -1.25000000E-01  5.00000000E-01  0.00000000E+00
                      -2.50000000E-01 -3.75000000E-01  0.00000000E+00
                      -1.25000000E-01 -3.75000000E-01  1.25000000E-01
                      -3.75000000E-01 -2.50000000E-01  0.00000000E+00
                      -2.50000000E-01 -2.50000000E-01  1.25000000E-01
                      -1.25000000E-01 -2.50000000E-01  2.50000000E-01
                       5.00000000E-01 -1.25000000E-01  0.00000000E+00
                      -3.75000000E-01 -1.25000000E-01  1.25000000E-01
                      -2.50000000E-01 -1.25000000E-01  2.50000000E-01
                      -1.25000000E-01 -1.25000000E-01  3.75000000E-01
                      -1.25000000E-01  2.50000000E-01  0.00000000E+00
                      -2.50000000E-01  3.75000000E-01  0.00000000E+00
                      -1.25000000E-01  3.75000000E-01  1.25000000E-01
                      -3.75000000E-01  5.00000000E-01  0.00000000E+00
                      -2.50000000E-01  5.00000000E-01  1.25000000E-01
                      -1.25000000E-01  5.00000000E-01  2.50000000E-01
                       5.00000000E-01 -3.75000000E-01  0.00000000E+00
                      -3.75000000E-01 -3.75000000E-01  1.25000000E-01
                      -2.50000000E-01 -3.75000000E-01  2.50000000E-01
                      -1.25000000E-01 -3.75000000E-01  3.75000000E-01
                       3.75000000E-01 -2.50000000E-01  0.00000000E+00
                       5.00000000E-01 -2.50000000E-01  1.25000000E-01
                      -3.75000000E-01 -2.50000000E-01  2.50000000E-01
                      -2.50000000E-01 -2.50000000E-01  3.75000000E-01
                      -1.25000000E-01 -2.50000000E-01  5.00000000E-01
                       2.50000000E-01 -1.25000000E-01  0.00000000E+00
                       3.75000000E-01 -1.25000000E-01  1.25000000E-01
                       5.00000000E-01 -1.25000000E-01  2.50000000E-01
                      -3.75000000E-01 -1.25000000E-01  3.75000000E-01
                      -2.50000000E-01 -1.25000000E-01  5.00000000E-01
                      -1.25000000E-01 -1.25000000E-01 -3.75000000E-01
                      -1.25000000E-01  0.00000000E+00  0.00000000E+00
                      -2.50000000E-01  1.25000000E-01  0.00000000E+00
                      -1.25000000E-01  1.25000000E-01  1.25000000E-01
                      -3.75000000E-01  2.50000000E-01  0.00000000E+00
                      -2.50000000E-01  2.50000000E-01  1.25000000E-01
                      -1.25000000E-01  2.50000000E-01  2.50000000E-01
                       5.00000000E-01  3.75000000E-01  0.00000000E+00
                      -3.75000000E-01  3.75000000E-01  1.25000000E-01
                      -2.50000000E-01  3.75000000E-01  2.50000000E-01
                      -1.25000000E-01  3.75000000E-01  3.75000000E-01
                       3.75000000E-01  5.00000000E-01  0.00000000E+00
                       5.00000000E-01  5.00000000E-01  1.25000000E-01
                      -3.75000000E-01  5.00000000E-01  2.50000000E-01
                      -2.50000000E-01  5.00000000E-01  3.75000000E-01
                      -1.25000000E-01  5.00000000E-01  5.00000000E-01
                       2.50000000E-01 -3.75000000E-01  0.00000000E+00
                       outvar_i_n : Printing only first  50 k-points.
           kptopt           3
         kptrlatt        4   -4    4     -4    4    4     -4   -4    4
          kptrlen      4.13383250E+01
P           mkmem          10
P          mkqmem          10
P          mk1mem          10
            natom           2
            nband           4
           ndtset          19
            ngfft          30      30      30
             nkpt         256
             nqpt           1
            nstep          40
             nsym           1
           ntypat           1
              occ      2.000000  2.000000  2.000000  2.000000
        optdriver           1
              qpt1    -2.50000000E-01  2.50000000E-01  2.50000000E-01
              qpt2     0.00000000E+00  5.00000000E-01  2.50000000E-01
              qpt3     2.50000000E-01  5.00000000E-01  2.50000000E-01
              qpt4     5.00000000E-01  5.00000000E-01  2.50000000E-01
              qpt5    -2.50000000E-01  5.00000000E-01  2.50000000E-01
              qpt6     0.00000000E+00 -2.50000000E-01  2.50000000E-01
              qpt7     2.50000000E-01 -2.50000000E-01  2.50000000E-01
              qpt8     5.00000000E-01 -2.50000000E-01  2.50000000E-01
              qpt9    -2.50000000E-01 -2.50000000E-01  2.50000000E-01
              qpt10    0.00000000E+00  0.00000000E+00  5.00000000E-01
              qpt11    2.50000000E-01  0.00000000E+00  5.00000000E-01
              qpt12    5.00000000E-01  0.00000000E+00  5.00000000E-01
              qpt13    0.00000000E+00  2.50000000E-01  5.00000000E-01
              qpt14    2.50000000E-01  2.50000000E-01  5.00000000E-01
              qpt15    5.00000000E-01  2.50000000E-01  5.00000000E-01
              qpt16   -2.50000000E-01  2.50000000E-01  5.00000000E-01
              qpt17    0.00000000E+00  5.00000000E-01  5.00000000E-01
              qpt18    2.50000000E-01  5.00000000E-01  5.00000000E-01
              qpt19    5.00000000E-01  5.00000000E-01  5.00000000E-01
          rfatpol           1       2
            rfdir           1       1       1
           rfphon           1
            rprim      7.0710678120E-01  7.0710678117E-01  6.9650239756E-11
                       3.1527828871E-11  7.0710678117E-01  7.0710678120E-01
                       7.0710678119E-01 -2.1777182160E-11  7.0710678119E-01
           shiftk      5.00000000E-01  5.00000000E-01  5.00000000E-01
          spgroup           1
           tolvrs      1.00000000E-08
            typat      1  1
              wtk        0.00391    0.00391    0.00391    0.00391    0.00391    0.00391
                         0.00391    0.00391    0.00391    0.00391    0.00391    0.00391
                         0.00391    0.00391    0.00391    0.00391    0.00391    0.00391
                         0.00391    0.00391    0.00391    0.00391    0.00391    0.00391
                         0.00391    0.00391    0.00391    0.00391    0.00391    0.00391
                         0.00391    0.00391    0.00391    0.00391    0.00391    0.00391
                         0.00391    0.00391    0.00391    0.00391    0.00391    0.00391
                         0.00391    0.00391    0.00391    0.00391    0.00391    0.00391
                         0.00391    0.00391
                       outvars : Printing only first  50 k-points.
           xangst      1.1638012194E-10  8.8647964307E-11 -3.2058171592E-12
                       1.3672062155E+00  1.3672062153E+00  1.3672062157E+00
            xcart      2.1992655779E-10  1.6752037478E-10 -6.0581164630E-12
                       2.5836453144E+00  2.5836453142E+00  2.5836453148E+00
             xred      3.8076535396E-11 -5.6571522372E-12  4.4847551496E-12
                       2.4999999996E-01  2.5000000001E-01  2.5000000000E-01
            znucl       14.00000
 
================================================================================
 
 chkinp: Checking input parameters for consistency, jdtset=   1.
 
 chkinp: Checking input parameters for consistency, jdtset=   2.
 
 chkinp: Checking input parameters for consistency, jdtset=   3.
 
 chkinp: Checking input parameters for consistency, jdtset=   4.
 
 chkinp: Checking input parameters for consistency, jdtset=   5.
 
 chkinp: Checking input parameters for consistency, jdtset=   6.
 
 chkinp: Checking input parameters for consistency, jdtset=   7.
 
 chkinp: Checking input parameters for consistency, jdtset=   8.
 
 chkinp: Checking input parameters for consistency, jdtset=   9.
 
 chkinp: Checking input parameters for consistency, jdtset=  10.
 
 chkinp: Checking input parameters for consistency, jdtset=  11.
 
 chkinp: Checking input parameters for consistency, jdtset=  12.
 
 chkinp: Checking input parameters for consistency, jdtset=  13.
 
 chkinp: Checking input parameters for consistency, jdtset=  14.
 
 chkinp: Checking input parameters for consistency, jdtset=  15.
 
 chkinp: Checking input parameters for consistency, jdtset=  16.
 
 chkinp: Checking input parameters for consistency, jdtset=  17.
 
 chkinp: Checking input parameters for consistency, jdtset=  18.
 
 chkinp: Checking input parameters for consistency, jdtset=  19.
 
================================================================================
== DATASET  1 ==================================================================
-   nproc =   28
 
 Exchange-correlation functional for the present dataset will be:
  GGA: Perdew-Burke-Ernzerhof functional - ixc=11
 Citation for XC functional:
  J.P.Perdew, K.Burke, M.Ernzerhof, PRL 77, 3865 (1996)
 
 Real(R)+Recip(G) space primitive vectors, cartesian coordinates (Bohr,Bohr^-1):
 R(1)=  5.1672906  5.1672906  0.0000000  G(1)=  0.0967625  0.0967625 -0.0967625
 R(2)=  0.0000000  5.1672906  5.1672906  G(2)= -0.0967625  0.0967625  0.0967625
 R(3)=  5.1672906 -0.0000000  5.1672906  G(3)=  0.0967625 -0.0967625  0.0967625
 Unit cell volume ucvol=  2.7594254E+02 bohr^3
 Angles (23,13,12)=  6.00000000E+01  6.00000000E+01  6.00000000E+01 degrees
 setup1 : take into account q-point for computing boxcut.
 
 getcut: wavevector= -0.2500  0.2500  0.2500  ngfft=  30  30  30
         ecut(hartree)=     16.000   => boxcut(ratio)=   2.24208
 
 getcut : COMMENT -
  Note that boxcut > 2.2 ; recall that boxcut=Gcut(box)/Gcut(sphere) = 2
  is sufficient for exact treatment of convolution.
  Such a large boxcut is a waste : you could raise ecut
  e.g. ecut=   20.107607 Hartrees makes boxcut=2
 
 
--- Pseudopotential description ------------------------------------------------
- pspini: atom type   1  psp file is /CECI/home/ucl/naps/jovbever/.PsP/Si/Si.psp8
- pspatm: opening atomic psp file    /CECI/home/ucl/naps/jovbever/.PsP/Si/Si.psp8
- Si    ONCVPSP-3.2.3.1  r_core=   1.60303   1.72197   1.91712
- 14.00000   4.00000    170510                znucl, zion, pspdat
    8   11    2    4       600   0.00000      pspcod,pspxc,lmax,lloc,mmax,r2well
    5.99000000000000    4.00000000000000    0.00000000000000   rchrg,fchrg,qchrg
     nproj     2     2     2
     extension_switch     1
  pspatm : epsatm=    9.34321699
         --- l  ekb(1:nproj) -->
             0    5.168965    0.829883
             1    2.571282    0.578307
             2   -2.427311   -0.488097
 pspatm: atomic psp has been read  and splines computed
 
   1.49491472E+02                                ecore*ucvol(ha*bohr**3)
--------------------------------------------------------------------------------
 
-inwffil : will read wavefunctions from disk file ddbi_DS1_WFK
 
 ==>  initialize data related to q vector <== 
 
 The list of irreducible perturbations for this q vector is:
    1)    idir= 1    ipert=   1
    2)    idir= 2    ipert=   1
    3)    idir= 3    ipert=   1
    4)    idir= 1    ipert=   2
    5)    idir= 2    ipert=   2
    6)    idir= 3    ipert=   2
 
================================================================================
 
--------------------------------------------------------------------------------
 Perturbation wavevector (in red.coord.)  -0.250000  0.250000  0.250000
 Perturbation : displacement of atom   1   along direction   1
 The set of symmetries contains only one element for this perturbation.
 symkpt : not enough symmetry to change the number of k points.
 
--------------------------------------------------------------------------------
 
-inwffil : will read wavefunctions from disk file ddbi_DS1_WFK
--------------------------------------------------------------------------------
 
-inwffil : will read wavefunctions from disk file ddbi_DS1_WFK
 Initialisation of the first-order wave-functions :
  ireadwf=   0
 
     iter   2DEtotal(Ha)        deltaE(Ha) residm    vres2
-ETOT  1   7.7731275695588     -8.881E+01 3.574E-01 3.497E+03
 ETOT  2   6.8150551299021     -9.581E-01 6.599E-03 2.130E+02
 ETOT  3   6.7539690700098     -6.109E-02 3.330E-04 8.630E+00
 ETOT  4   6.7523300350756     -1.639E-03 1.861E-05 5.160E-01
 ETOT  5   6.7522299492724     -1.001E-04 1.572E-06 1.499E-02
 ETOT  6   6.7522272220413     -2.727E-06 7.150E-08 4.587E-04
 ETOT  7   6.7522271295337     -9.251E-08 3.914E-09 1.120E-05
 ETOT  8   6.7522271268109     -2.723E-09 2.347E-10 1.182E-06
 ETOT  9   6.7522271265512     -2.597E-10 9.819E-12 3.346E-08
 ETOT 10   6.7522271265428     -8.413E-12 6.139E-13 1.004E-09
 
 At SCF step   10       vres2   =  1.00E-09 < tolvrs=  1.00E-08 =>converged.
================================================================================
 
 ----iterations are completed or convergence reached----
 
 Mean square residual over all n,k,spin=   49.967E-16; max=  61.387E-14
 
 Thirteen components of 2nd-order total energy (hartree) are
 1,2,3: 0th-order hamiltonian combined with 1st-order wavefunctions
     kin0=   8.45061322E+01 eigvalue=  -2.10108488E+00  local=  -4.97520034E+01
 4,5,6: 1st-order hamiltonian combined with 1st and 0th-order wfs
 loc psp =  -7.28503472E+01  Hartree=   2.88321062E+01     xc=  -7.21502140E+00
 note that "loc psp" includes a xc core correction that could be resolved
 7,8,9: eventually, occupation + non-local contributions
    edocc=   0.00000000E+00     enl0=   3.55581865E+01   enl1=  -1.06806283E+02
 1-9 gives the relaxation energy (to be shifted if some occ is /=2.0)
   erelax=  -8.98283147E+01
 10,11,12 Non-relaxation  contributions : frozen-wavefunctions and Ewald
 fr.local=   1.12136169E+01 fr.nonlo=   6.08535606E+01  Ewald=   2.69888844E+01
 13,14 Frozen wf xc core corrections (1) and (2)
 frxc 1  =  -7.98973949E+00  frxc 2 =   5.51421949E+00
 Resulting in :
 2DEtotal=    0.6752227127E+01 Ha. Also 2DEtotal=    0.183737444250E+03 eV
    (2DErelax=   -8.9828314721E+01 Ha. 2DEnonrelax=    9.6580541848E+01 Ha)
    (  non-var. 2DEtotal :    6.7522268662E+00 Ha)
 
 
--------------------------------------------------------------------------------
 Perturbation wavevector (in red.coord.)  -0.250000  0.250000  0.250000
 Perturbation : displacement of atom   1   along direction   2
 The set of symmetries contains only one element for this perturbation.
 symkpt : not enough symmetry to change the number of k points.
 
--------------------------------------------------------------------------------
 
-inwffil : will read wavefunctions from disk file ddbi_DS1_WFK
--------------------------------------------------------------------------------
 
-inwffil : will read wavefunctions from disk file ddbi_DS1_WFK
 Initialisation of the first-order wave-functions :
  ireadwf=   0
 
     iter   2DEtotal(Ha)        deltaE(Ha) residm    vres2
-ETOT  1   7.6047538580468     -8.416E+01 5.628E-01 1.476E+03
 ETOT  2   7.1138454501387     -4.909E-01 6.888E-03 3.820E+01
 ETOT  3   7.1022800188142     -1.157E-02 3.113E-04 3.258E+00
 ETOT  4   7.1016175043694     -6.625E-04 1.519E-05 1.966E-01
 ETOT  5   7.1015750752875     -4.243E-05 7.058E-07 7.453E-03
 ETOT  6   7.1015736097657     -1.466E-06 9.938E-09 3.877E-04
 ETOT  7   7.1015735377693     -7.200E-08 8.147E-10 9.142E-06
 ETOT  8   7.1015735355751     -2.194E-09 1.966E-11 3.237E-07
 ETOT  9   7.1015735355061     -6.904E-11 2.370E-12 1.087E-08
 ETOT 10   7.1015735355036     -2.515E-12 1.679E-13 5.232E-10
 
 At SCF step   10       vres2   =  5.23E-10 < tolvrs=  1.00E-08 =>converged.
================================================================================
 
 ----iterations are completed or convergence reached----
 
 Mean square residual over all n,k,spin=   20.337E-16; max=  16.794E-14
 
 Thirteen components of 2nd-order total energy (hartree) are
 1,2,3: 0th-order hamiltonian combined with 1st-order wavefunctions
     kin0=   8.47242383E+01 eigvalue=  -2.19951679E+00  local=  -5.05863443E+01
 4,5,6: 1st-order hamiltonian combined with 1st and 0th-order wfs
 loc psp =  -6.12783121E+01  Hartree=   2.34796980E+01     xc=  -7.02065767E+00
 note that "loc psp" includes a xc core correction that could be resolved
 7,8,9: eventually, occupation + non-local contributions
    edocc=   0.00000000E+00     enl0=   3.62686105E+01   enl1=  -1.08053744E+02
 1-9 gives the relaxation energy (to be shifted if some occ is /=2.0)
   erelax=  -8.46660276E+01
 10,11,12 Non-relaxation  contributions : frozen-wavefunctions and Ewald
 fr.local=   1.12136167E+01 fr.nonlo=   6.08535605E+01  Ewald=   2.21760006E+01
 13,14 Frozen wf xc core corrections (1) and (2)
 frxc 1  =  -7.98973950E+00  frxc 2 =   5.51416287E+00
 Resulting in :
 2DEtotal=    0.7101573536E+01 Ha. Also 2DEtotal=    0.193243643485E+03 eV
    (2DErelax=   -8.4666027628E+01 Ha. 2DEnonrelax=    9.1767601163E+01 Ha)
    (  non-var. 2DEtotal :    7.1015733292E+00 Ha)
 
 
--------------------------------------------------------------------------------
 Perturbation wavevector (in red.coord.)  -0.250000  0.250000  0.250000
 Perturbation : displacement of atom   1   along direction   3
 The set of symmetries contains only one element for this perturbation.
 symkpt : not enough symmetry to change the number of k points.
 
--------------------------------------------------------------------------------
 
-inwffil : will read wavefunctions from disk file ddbi_DS1_WFK
--------------------------------------------------------------------------------
 
-inwffil : will read wavefunctions from disk file ddbi_DS1_WFK
 Initialisation of the first-order wave-functions :
  ireadwf=   0
 
     iter   2DEtotal(Ha)        deltaE(Ha) residm    vres2
-ETOT  1   7.6054120556108     -8.416E+01 5.628E-01 1.477E+03
 ETOT  2   7.1139696212278     -4.914E-01 1.227E-02 3.856E+01
 ETOT  3   7.1022896375329     -1.168E-02 3.869E-04 3.247E+00
 ETOT  4   7.1016263213147     -6.633E-04 1.669E-05 1.970E-01
 ETOT  5   7.1015838548993     -4.247E-05 7.103E-07 7.415E-03
 ETOT  6   7.1015823885109     -1.466E-06 3.002E-08 3.877E-04
 ETOT  7   7.1015823161736     -7.234E-08 1.579E-09 8.963E-06
 ETOT  8   7.1015823140109     -2.163E-09 6.356E-11 3.295E-07
 ETOT  9   7.1015823139402     -7.073E-11 4.553E-12 1.098E-08
 ETOT 10   7.1015823139378     -2.402E-12 4.064E-13 5.568E-10
 
 At SCF step   10       vres2   =  5.57E-10 < tolvrs=  1.00E-08 =>converged.
================================================================================
 
 ----iterations are completed or convergence reached----
 
 Mean square residual over all n,k,spin=   23.339E-16; max=  40.641E-14
 
 Thirteen components of 2nd-order total energy (hartree) are
 1,2,3: 0th-order hamiltonian combined with 1st-order wavefunctions
     kin0=   8.47242383E+01 eigvalue=  -2.19951675E+00  local=  -5.05863443E+01
 4,5,6: 1st-order hamiltonian combined with 1st and 0th-order wfs
 loc psp =  -6.12783122E+01  Hartree=   2.34796981E+01     xc=  -7.02065766E+00
 note that "loc psp" includes a xc core correction that could be resolved
 7,8,9: eventually, occupation + non-local contributions
    edocc=   0.00000000E+00     enl0=   3.62686106E+01   enl1=  -1.08053744E+02
 1-9 gives the relaxation energy (to be shifted if some occ is /=2.0)
   erelax=  -8.46660278E+01
 10,11,12 Non-relaxation  contributions : frozen-wavefunctions and Ewald
 fr.local=   1.12136162E+01 fr.nonlo=   6.08535611E+01  Ewald=   2.21760006E+01
 13,14 Frozen wf xc core corrections (1) and (2)
 frxc 1  =  -7.98973949E+00  frxc 2 =   5.51417181E+00
 Resulting in :
 2DEtotal=    0.7101582314E+01 Ha. Also 2DEtotal=    0.193243882358E+03 eV
    (2DErelax=   -8.4666027833E+01 Ha. 2DEnonrelax=    9.1767610147E+01 Ha)
    (  non-var. 2DEtotal :    7.1015820973E+00 Ha)
 
 
--------------------------------------------------------------------------------
 Perturbation wavevector (in red.coord.)  -0.250000  0.250000  0.250000
 Perturbation : displacement of atom   2   along direction   1
 The set of symmetries contains only one element for this perturbation.
 symkpt : not enough symmetry to change the number of k points.
 
--------------------------------------------------------------------------------
 
-inwffil : will read wavefunctions from disk file ddbi_DS1_WFK
--------------------------------------------------------------------------------
 
-inwffil : will read wavefunctions from disk file ddbi_DS1_WFK
 Initialisation of the first-order wave-functions :
  ireadwf=   0
 
     iter   2DEtotal(Ha)        deltaE(Ha) residm    vres2
-ETOT  1   7.7731437776788     -8.881E+01 3.574E-01 3.497E+03
 ETOT  2   6.8150664837293     -9.581E-01 6.599E-03 2.131E+02
 ETOT  3   6.7539779087193     -6.109E-02 3.330E-04 8.630E+00
 ETOT  4   6.7523389045706     -1.639E-03 1.862E-05 5.161E-01
 ETOT  5   6.7522388081555     -1.001E-04 1.572E-06 1.498E-02
 ETOT  6   6.7522360811422     -2.727E-06 7.152E-08 4.589E-04
 ETOT  7   6.7522359885948     -9.255E-08 3.913E-09 1.121E-05
 ETOT  8   6.7522359858719     -2.723E-09 2.347E-10 1.183E-06
 ETOT  9   6.7522359856118     -2.601E-10 9.818E-12 3.346E-08
 ETOT 10   6.7522359856036     -8.114E-12 6.140E-13 1.003E-09
 
 At SCF step   10       vres2   =  1.00E-09 < tolvrs=  1.00E-08 =>converged.
================================================================================
 
 ----iterations are completed or convergence reached----
 
 Mean square residual over all n,k,spin=   49.939E-16; max=  61.396E-14
 
 Thirteen components of 2nd-order total energy (hartree) are
 1,2,3: 0th-order hamiltonian combined with 1st-order wavefunctions
     kin0=   8.45061371E+01 eigvalue=  -2.10108482E+00  local=  -4.97520063E+01
 4,5,6: 1st-order hamiltonian combined with 1st and 0th-order wfs
 loc psp =  -7.28503425E+01  Hartree=   2.88321072E+01     xc=  -7.21502182E+00
 note that "loc psp" includes a xc core correction that could be resolved
 7,8,9: eventually, occupation + non-local contributions
    edocc=   0.00000000E+00     enl0=   3.55581928E+01   enl1=  -1.06806305E+02
 1-9 gives the relaxation energy (to be shifted if some occ is /=2.0)
   erelax=  -8.98283237E+01
 10,11,12 Non-relaxation  contributions : frozen-wavefunctions and Ewald
 fr.local=   1.12136231E+01 fr.nonlo=   6.08535699E+01  Ewald=   2.69888844E+01
 13,14 Frozen wf xc core corrections (1) and (2)
 frxc 1  =  -7.98973849E+00  frxc 2 =   5.51422073E+00
 Resulting in :
 2DEtotal=    0.6752235986E+01 Ha. Also 2DEtotal=    0.183737685318E+03 eV
    (2DErelax=   -8.9828323702E+01 Ha. 2DEnonrelax=    9.6580559688E+01 Ha)
    (  non-var. 2DEtotal :    6.7522357257E+00 Ha)
 
 
--------------------------------------------------------------------------------
 Perturbation wavevector (in red.coord.)  -0.250000  0.250000  0.250000
 Perturbation : displacement of atom   2   along direction   2
 The set of symmetries contains only one element for this perturbation.
 symkpt : not enough symmetry to change the number of k points.
 
--------------------------------------------------------------------------------
 
-inwffil : will read wavefunctions from disk file ddbi_DS1_WFK
--------------------------------------------------------------------------------
 
-inwffil : will read wavefunctions from disk file ddbi_DS1_WFK
 Initialisation of the first-order wave-functions :
  ireadwf=   0
 
     iter   2DEtotal(Ha)        deltaE(Ha) residm    vres2
-ETOT  1   7.6048308048049     -8.416E+01 5.628E-01 1.476E+03
 ETOT  2   7.1139123877498     -4.909E-01 6.844E-03 3.821E+01
 ETOT  3   7.1023453964812     -1.157E-02 3.096E-04 3.258E+00
 ETOT  4   7.1016829702296     -6.624E-04 1.514E-05 1.965E-01
 ETOT  5   7.1016405563602     -4.241E-05 7.021E-07 7.453E-03
 ETOT  6   7.1016390906575     -1.466E-06 9.883E-09 3.880E-04
 ETOT  7   7.1016390186056     -7.205E-08 8.013E-10 9.146E-06
 ETOT  8   7.1016390164105     -2.195E-09 1.922E-11 3.239E-07
 ETOT  9   7.1016390163414     -6.912E-11 2.377E-12 1.088E-08
 ETOT 10   7.1016390163389     -2.530E-12 1.703E-13 5.256E-10
 
 At SCF step   10       vres2   =  5.26E-10 < tolvrs=  1.00E-08 =>converged.
================================================================================
 
 ----iterations are completed or convergence reached----
 
 Mean square residual over all n,k,spin=   20.371E-16; max=  17.029E-14
 
 Thirteen components of 2nd-order total energy (hartree) are
 1,2,3: 0th-order hamiltonian combined with 1st-order wavefunctions
     kin0=   8.47242435E+01 eigvalue=  -2.19951684E+00  local=  -5.05863474E+01
 4,5,6: 1st-order hamiltonian combined with 1st and 0th-order wfs
 loc psp =  -6.12783080E+01  Hartree=   2.34796993E+01     xc=  -7.02065819E+00
 note that "loc psp" includes a xc core correction that could be resolved
 7,8,9: eventually, occupation + non-local contributions
    edocc=   0.00000000E+00     enl0=   3.62686169E+01   enl1=  -1.08053766E+02
 1-9 gives the relaxation energy (to be shifted if some occ is /=2.0)
   erelax=  -8.46660369E+01
 10,11,12 Non-relaxation  contributions : frozen-wavefunctions and Ewald
 fr.local=   1.12136231E+01 fr.nonlo=   6.08535700E+01  Ewald=   2.21760006E+01
 13,14 Frozen wf xc core corrections (1) and (2)
 frxc 1  =  -7.98973849E+00  frxc 2 =   5.51422073E+00
 Resulting in :
 2DEtotal=    0.7101639016E+01 Ha. Also 2DEtotal=    0.193245425309E+03 eV
    (2DErelax=   -8.4666036895E+01 Ha. 2DEnonrelax=    9.1767675911E+01 Ha)
    (  non-var. 2DEtotal :    7.1016388085E+00 Ha)
 
 
--------------------------------------------------------------------------------
 Perturbation wavevector (in red.coord.)  -0.250000  0.250000  0.250000
 Perturbation : displacement of atom   2   along direction   3
 The set of symmetries contains only one element for this perturbation.
 symkpt : not enough symmetry to change the number of k points.
 
--------------------------------------------------------------------------------
 
-inwffil : will read wavefunctions from disk file ddbi_DS1_WFK
--------------------------------------------------------------------------------
 
-inwffil : will read wavefunctions from disk file ddbi_DS1_WFK
 Initialisation of the first-order wave-functions :
  ireadwf=   0
 
     iter   2DEtotal(Ha)        deltaE(Ha) residm    vres2
-ETOT  1   7.6054923515110     -8.416E+01 5.628E-01 1.477E+03
 ETOT  2   7.1140295300397     -4.915E-01 1.230E-02 3.858E+01
 ETOT  3   7.1023462794333     -1.168E-02 3.872E-04 3.247E+00
 ETOT  4   7.1016830091361     -6.633E-04 1.667E-05 1.970E-01
 ETOT  5   7.1016405590282     -4.245E-05 7.102E-07 7.415E-03
 ETOT  6   7.1016390923283     -1.467E-06 3.025E-08 3.880E-04
 ETOT  7   7.1016390199271     -7.240E-08 1.566E-09 8.967E-06
 ETOT  8   7.1016390177637     -2.163E-09 6.398E-11 3.297E-07
 ETOT  9   7.1016390176928     -7.086E-11 4.513E-12 1.100E-08
 ETOT 10   7.1016390176903     -2.473E-12 4.025E-13 5.600E-10
 
 At SCF step   10       vres2   =  5.60E-10 < tolvrs=  1.00E-08 =>converged.
================================================================================
 
 ----iterations are completed or convergence reached----
 
 Mean square residual over all n,k,spin=   23.351E-16; max=  40.248E-14
 
 Thirteen components of 2nd-order total energy (hartree) are
 1,2,3: 0th-order hamiltonian combined with 1st-order wavefunctions
     kin0=   8.47242432E+01 eigvalue=  -2.19951682E+00  local=  -5.05863471E+01
 4,5,6: 1st-order hamiltonian combined with 1st and 0th-order wfs
 loc psp =  -6.12783082E+01  Hartree=   2.34796993E+01     xc=  -7.02065820E+00
 note that "loc psp" includes a xc core correction that could be resolved
 7,8,9: eventually, occupation + non-local contributions
    edocc=   0.00000000E+00     enl0=   3.62686166E+01   enl1=  -1.08053765E+02
 1-9 gives the relaxation energy (to be shifted if some occ is /=2.0)
   erelax=  -8.46660366E+01
 10,11,12 Non-relaxation  contributions : frozen-wavefunctions and Ewald
 fr.local=   1.12136234E+01 fr.nonlo=   6.08535694E+01  Ewald=   2.21760006E+01
 13,14 Frozen wf xc core corrections (1) and (2)
 frxc 1  =  -7.98973851E+00  frxc 2 =   5.51422077E+00
 Resulting in :
 2DEtotal=    0.7101639018E+01 Ha. Also 2DEtotal=    0.193245425346E+03 eV
    (2DErelax=   -8.4666036633E+01 Ha. 2DEnonrelax=    9.1767675651E+01 Ha)
    (  non-var. 2DEtotal :    7.1016387993E+00 Ha)
 
================================================================================
 
 ---- first-order wavefunction calculations are completed ----
 
 
 ==> Compute Derivative Database <==
  
  2nd-order matrix (non-cartesian coordinates, masses not included,
   asr not included )
     j1       j2             matrix element
  dir pert dir pert     real part     imaginary part
  
   1    1   1    1         6.7522268662         0.0000000000
   1    1   2    1         3.2087016564         0.2089966713
   1    1   3    1         3.2087108217         0.2089966392
   1    1   1    2        -2.7241859722        -1.9822974752
   1    1   2    2        -2.4604941248         0.1702971357
   1    1   3    2        -2.4604940438         0.1702971003
  
   2    1   1    1         3.2087000866        -0.2089967870
   2    1   2    1         7.1015733292         0.0000000000
   2    1   3    1         3.8827788691         0.0000000660
   2    1   1    2        -2.4604949290         0.1702969801
   2    1   2    2        -2.6917602331         3.0533232000
   2    1   3    2        -2.4377017400         0.4168088122
  
   3    1   1    1         3.2087092277        -0.2089967918
   3    1   2    1         3.8827788981         0.0000000632
   3    1   3    1         7.1015820973         0.0000000000
   3    1   1    2        -2.4604949264         0.1702969805
   3    1   2    2        -2.4377017555         0.4168087774
   3    1   3    2        -2.6917602001         3.0533232506
  
   1    2   1    1        -2.7241859716         1.9822974743
   1    2   2    1        -2.4604941532        -0.1702970687
   1    2   3    1        -2.4604940763        -0.1702970205
   1    2   1    2         6.7522357257         0.0000000000
   1    2   2    2         3.2087120452        -0.2089967853
   1    2   3    2         3.2087122128        -0.2089967475
  
   2    2   1    1        -2.4604949035        -0.1702970480
   2    2   2    1        -2.6917602329        -3.0533231995
   2    2   3    1        -2.4377017452        -0.4168088058
   2    2   1    2         3.2087104728         0.2089969032
   2    2   2    2         7.1016388085         0.0000000000
   2    2   3    2         3.8828018696        -0.0000000674
  
   3    2   1    1        -2.4604948976        -0.1702970606
   3    2   2    1        -2.4377017500        -0.4168087821
   3    2   3    1        -2.6917602001        -3.0533232499
   3    2   1    2         3.2087106161         0.2089969033
   3    2   2    2         3.8828018986        -0.0000000651
   3    2   3    2         7.1016387993         0.0000000000
  
  
  Dynamical matrix, in cartesian coordinates,
   if specified in the inputs, asr has been imposed
     j1       j2             matrix element
  dir pert dir pert     real part    imaginary part
  
   1    1   1    1         0.1234962732        -0.0000000016
   1    1   2    1         0.0029458677         0.0000000015
   1    1   3    1        -0.0031348646         0.0039136642
   1    1   1    2        -0.0302639962         0.0308110614
   1    1   2    2        -0.0207490173        -0.0679314963
   1    1   3    2        -0.0205686213         0.0217491956
  
   2    1   1    1         0.0029458681         0.0000000010
   2    1   2    1         0.1234959304        -0.0000000009
   2    1   3    1        -0.0031348582         0.0039136642
   2    1   1    2        -0.0207490158        -0.0679314969
   2    1   2    2        -0.0302639977         0.0308110621
   2    1   3    2        -0.0205686216         0.0217491953
  
   3    1   1    1        -0.0031348950        -0.0039136664
   3    1   2    1        -0.0031348870        -0.0039136671
   3    1   3    1         0.1487414541         0.0000000037
   3    1   1    2        -0.0205686375         0.0217491940
   3    1   2    2        -0.0205686369         0.0217491917
   3    1   3    2        -0.0294103641         0.0400434028
  
   1    2   1    1        -0.0302639962        -0.0308110614
   1    2   2    1        -0.0207490172         0.0679314960
   1    2   3    1        -0.0205686218        -0.0217491942
   1    2   1    2         0.1234969009         0.0000000016
   1    2   2    2         0.0029452374        -0.0000000016
   1    2   3    2        -0.0031348352        -0.0039136663
  
   2    2   1    1        -0.0207490159         0.0679314972
   2    2   2    1        -0.0302639977        -0.0308110621
   2    2   3    1        -0.0205686222        -0.0217491939
   2    2   1    2         0.0029452378        -0.0000000009
   2    2   2    2         0.1234968951         0.0000000009
   2    2   3    2        -0.0031348329        -0.0039136663
  
   3    2   1    1        -0.0205686371        -0.0217491954
   3    2   2    1        -0.0205686364        -0.0217491931
   3    2   3    1        -0.0294103640        -0.0400434028
   3    2   1    2        -0.0031348657         0.0039136685
   3    2   2    2        -0.0031348618         0.0039136692
   3    2   3    2         0.1487428912        -0.0000000038
 
  Phonon wavevector (reduced coordinates) : -0.25000  0.25000  0.25000
 Phonon energies in Hartree :
   6.457852E-04  8.945667E-04  1.423933E-03  1.837860E-03  2.071783E-03
   2.131784E-03
 Phonon frequencies in cm-1    :
-  1.417335E+02  1.963347E+02  3.125172E+02  4.033637E+02  4.547037E+02
-  4.678725E+02
 
================================================================================
== DATASET  2 ==================================================================
-   nproc =   28
 
 Exchange-correlation functional for the present dataset will be:
  GGA: Perdew-Burke-Ernzerhof functional - ixc=11
 Citation for XC functional:
  J.P.Perdew, K.Burke, M.Ernzerhof, PRL 77, 3865 (1996)
 
 Real(R)+Recip(G) space primitive vectors, cartesian coordinates (Bohr,Bohr^-1):
 R(1)=  5.1672906  5.1672906  0.0000000  G(1)=  0.0967625  0.0967625 -0.0967625
 R(2)=  0.0000000  5.1672906  5.1672906  G(2)= -0.0967625  0.0967625  0.0967625
 R(3)=  5.1672906 -0.0000000  5.1672906  G(3)=  0.0967625 -0.0967625  0.0967625
 Unit cell volume ucvol=  2.7594254E+02 bohr^3
 Angles (23,13,12)=  6.00000000E+01  6.00000000E+01  6.00000000E+01 degrees
 setup1 : take into account q-point for computing boxcut.
 
 getcut: wavevector=  0.0000  0.5000  0.2500  ngfft=  30  30  30
         ecut(hartree)=     16.000   => boxcut(ratio)=   2.20572
 
 getcut : COMMENT -
  Note that boxcut > 2.2 ; recall that boxcut=Gcut(box)/Gcut(sphere) = 2
  is sufficient for exact treatment of convolution.
  Such a large boxcut is a waste : you could raise ecut
  e.g. ecut=   19.460745 Hartrees makes boxcut=2
 
--------------------------------------------------------------------------------
 
-inwffil : will read wavefunctions from disk file ddbi_DS2_WFK
 
 ==>  initialize data related to q vector <== 
 
 The list of irreducible perturbations for this q vector is:
    1)    idir= 1    ipert=   1
    2)    idir= 2    ipert=   1
    3)    idir= 3    ipert=   1
    4)    idir= 1    ipert=   2
    5)    idir= 2    ipert=   2
    6)    idir= 3    ipert=   2
 
================================================================================
 
--------------------------------------------------------------------------------
 Perturbation wavevector (in red.coord.)   0.000000  0.500000  0.250000
 Perturbation : displacement of atom   1   along direction   1
 The set of symmetries contains only one element for this perturbation.
 symkpt : not enough symmetry to change the number of k points.
 
--------------------------------------------------------------------------------
 
-inwffil : will read wavefunctions from disk file ddbi_DS2_WFK
--------------------------------------------------------------------------------
 
-inwffil : will read wavefunctions from disk file ddbi_DS2_WFK
 Initialisation of the first-order wave-functions :
  ireadwf=   0
 
     iter   2DEtotal(Ha)        deltaE(Ha) residm    vres2
-ETOT  1   6.8830259380573     -7.967E+01 6.063E-01 8.829E+02
 ETOT  2   6.4424185314964     -4.406E-01 8.283E-03 8.121E+00
 ETOT  3   6.4378889440718     -4.530E-03 5.101E-04 7.640E-01
 ETOT  4   6.4376688967113     -2.200E-04 1.242E-05 1.341E-02
 ETOT  5   6.4376654809069     -3.416E-06 1.245E-06 3.437E-04
 ETOT  6   6.4376653807874     -1.001E-07 3.097E-08 2.591E-05
 ETOT  7   6.4376653746862     -6.101E-09 2.919E-09 1.822E-06
 ETOT  8   6.4376653742237     -4.624E-10 9.141E-11 1.157E-08
 ETOT  9   6.4376653742190     -4.746E-12 8.616E-12 4.425E-10
 
 At SCF step    9       vres2   =  4.42E-10 < tolvrs=  1.00E-08 =>converged.
================================================================================
 
 ----iterations are completed or convergence reached----
 
 Mean square residual over all n,k,spin=   12.777E-15; max=  86.163E-13
 
 Thirteen components of 2nd-order total energy (hartree) are
 1,2,3: 0th-order hamiltonian combined with 1st-order wavefunctions
     kin0=   8.49036266E+01 eigvalue=  -2.36216625E+00  local=  -5.05671829E+01
 4,5,6: 1st-order hamiltonian combined with 1st and 0th-order wfs
 loc psp =  -5.25714582E+01  Hartree=   1.92476424E+01     xc=  -7.11675464E+00
 note that "loc psp" includes a xc core correction that could be resolved
 7,8,9: eventually, occupation + non-local contributions
    edocc=   0.00000000E+00     enl0=   3.60094941E+01   enl1=  -1.07657861E+02
 1-9 gives the relaxation energy (to be shifted if some occ is /=2.0)
   erelax=  -8.01146594E+01
 10,11,12 Non-relaxation  contributions : frozen-wavefunctions and Ewald
 fr.local=   1.12136169E+01 fr.nonlo=   6.08535606E+01  Ewald=   1.69606673E+01
 13,14 Frozen wf xc core corrections (1) and (2)
 frxc 1  =  -7.98973949E+00  frxc 2 =   5.51421949E+00
 Resulting in :
 2DEtotal=    0.6437665374E+01 Ha. Also 2DEtotal=    0.175177783660E+03 eV
    (2DErelax=   -8.0114659376E+01 Ha. 2DEnonrelax=    8.6552324750E+01 Ha)
    (  non-var. 2DEtotal :    6.4376653713E+00 Ha)
 
 
--------------------------------------------------------------------------------
 Perturbation wavevector (in red.coord.)   0.000000  0.500000  0.250000
 Perturbation : displacement of atom   1   along direction   2
 The set of symmetries contains only one element for this perturbation.
 symkpt : not enough symmetry to change the number of k points.
 
--------------------------------------------------------------------------------
 
-inwffil : will read wavefunctions from disk file ddbi_DS2_WFK
--------------------------------------------------------------------------------
 
-inwffil : will read wavefunctions from disk file ddbi_DS2_WFK
 Initialisation of the first-order wave-functions :
  ireadwf=   0
 
     iter   2DEtotal(Ha)        deltaE(Ha) residm    vres2
-ETOT  1   8.4633959831220     -9.480E+01 7.683E-01 4.094E+03
 ETOT  2   7.5129856150752     -9.504E-01 5.421E-03 2.830E+02
 ETOT  3   7.4379551329806     -7.503E-02 2.497E-04 8.693E+00
 ETOT  4   7.4364779478747     -1.477E-03 9.670E-06 5.398E-01
 ETOT  5   7.4363901448496     -8.780E-05 3.877E-07 1.048E-02
 ETOT  6   7.4363880339932     -2.111E-06 3.037E-08 5.511E-04
 ETOT  7   7.4363879245265     -1.095E-07 9.609E-10 8.543E-06
 ETOT  8   7.4363879226392     -1.887E-09 3.929E-11 4.205E-07
 ETOT  9   7.4363879225369     -1.023E-10 4.205E-12 2.967E-08
 ETOT 10   7.4363879225306     -6.239E-12 6.571E-14 1.667E-09
 
 At SCF step   10       vres2   =  1.67E-09 < tolvrs=  1.00E-08 =>converged.
================================================================================
 
 ----iterations are completed or convergence reached----
 
 Mean square residual over all n,k,spin=   39.930E-16; max=  65.706E-15
 
 Thirteen components of 2nd-order total energy (hartree) are
 1,2,3: 0th-order hamiltonian combined with 1st-order wavefunctions
     kin0=   8.52437823E+01 eigvalue=  -2.14632336E+00  local=  -5.07287875E+01
 4,5,6: 1st-order hamiltonian combined with 1st and 0th-order wfs
 loc psp =  -8.39185207E+01  Hartree=   3.43394376E+01     xc=  -7.17744138E+00
 note that "loc psp" includes a xc core correction that could be resolved
 7,8,9: eventually, occupation + non-local contributions
    edocc=   0.00000000E+00     enl0=   3.62947962E+01   enl1=  -1.07732406E+02
 1-9 gives the relaxation energy (to be shifted if some occ is /=2.0)
   erelax=  -9.58254624E+01
 10,11,12 Non-relaxation  contributions : frozen-wavefunctions and Ewald
 fr.local=   1.12136167E+01 fr.nonlo=   6.08535605E+01  Ewald=   3.36702498E+01
 13,14 Frozen wf xc core corrections (1) and (2)
 frxc 1  =  -7.98973949E+00  frxc 2 =   5.51416287E+00
 Resulting in :
 2DEtotal=    0.7436387923E+01 Ha. Also 2DEtotal=    0.202354406292E+03 eV
    (2DErelax=   -9.5825462438E+01 Ha. 2DEnonrelax=    1.0326185036E+02 Ha)
    (  non-var. 2DEtotal :    7.4363871745E+00 Ha)
 
 
--------------------------------------------------------------------------------
 Perturbation wavevector (in red.coord.)   0.000000  0.500000  0.250000
 Perturbation : displacement of atom   1   along direction   3
 The set of symmetries contains only one element for this perturbation.
 symkpt : not enough symmetry to change the number of k points.
 
--------------------------------------------------------------------------------
 
-inwffil : will read wavefunctions from disk file ddbi_DS2_WFK
--------------------------------------------------------------------------------
 
-inwffil : will read wavefunctions from disk file ddbi_DS2_WFK
 Initialisation of the first-order wave-functions :
  ireadwf=   0
 
     iter   2DEtotal(Ha)        deltaE(Ha) residm    vres2
-ETOT  1   7.6038924235092     -8.416E+01 5.628E-01 1.476E+03
 ETOT  2   7.1137334991950     -4.902E-01 6.631E-03 3.799E+01
 ETOT  3   7.1022813181361     -1.145E-02 3.178E-04 3.222E+00
 ETOT  4   7.1016262675092     -6.551E-04 9.178E-06 1.971E-01
 ETOT  5   7.1015838338468     -4.243E-05 5.720E-07 7.403E-03
 ETOT  6   7.1015823724397     -1.461E-06 1.555E-08 3.885E-04
 ETOT  7   7.1015823003871     -7.205E-08 1.429E-09 9.078E-06
 ETOT  8   7.1015822982116     -2.176E-09 6.701E-11 3.376E-07
 ETOT  9   7.1015822981400     -7.152E-11 4.184E-12 1.153E-08
 ETOT 10   7.1015822981375     -2.586E-12 4.447E-13 6.738E-10
 
 At SCF step   10       vres2   =  6.74E-10 < tolvrs=  1.00E-08 =>converged.
================================================================================
 
 ----iterations are completed or convergence reached----
 
 Mean square residual over all n,k,spin=   23.805E-16; max=  44.473E-14
 
 Thirteen components of 2nd-order total energy (hartree) are
 1,2,3: 0th-order hamiltonian combined with 1st-order wavefunctions
     kin0=   8.47242385E+01 eigvalue=  -2.19951678E+00  local=  -5.05863444E+01
 4,5,6: 1st-order hamiltonian combined with 1st and 0th-order wfs
 loc psp =  -6.12783124E+01  Hartree=   2.34796982E+01     xc=  -7.02065768E+00
 note that "loc psp" includes a xc core correction that could be resolved
 7,8,9: eventually, occupation + non-local contributions
    edocc=   0.00000000E+00     enl0=   3.62686106E+01   enl1=  -1.08053744E+02
 1-9 gives the relaxation energy (to be shifted if some occ is /=2.0)
   erelax=  -8.46660278E+01
 10,11,12 Non-relaxation  contributions : frozen-wavefunctions and Ewald
 fr.local=   1.12136162E+01 fr.nonlo=   6.08535611E+01  Ewald=   2.21760006E+01
 13,14 Frozen wf xc core corrections (1) and (2)
 frxc 1  =  -7.98973949E+00  frxc 2 =   5.51417181E+00
 Resulting in :
 2DEtotal=    0.7101582298E+01 Ha. Also 2DEtotal=    0.193243881928E+03 eV
    (2DErelax=   -8.4666027849E+01 Ha. 2DEnonrelax=    9.1767610147E+01 Ha)
    (  non-var. 2DEtotal :    7.1015820221E+00 Ha)
 
 
--------------------------------------------------------------------------------
 Perturbation wavevector (in red.coord.)   0.000000  0.500000  0.250000
 Perturbation : displacement of atom   2   along direction   1
 The set of symmetries contains only one element for this perturbation.
 symkpt : not enough symmetry to change the number of k points.
 
--------------------------------------------------------------------------------
 
-inwffil : will read wavefunctions from disk file ddbi_DS2_WFK
--------------------------------------------------------------------------------
 
-inwffil : will read wavefunctions from disk file ddbi_DS2_WFK
 Initialisation of the first-order wave-functions :
  ireadwf=   0
 
     iter   2DEtotal(Ha)        deltaE(Ha) residm    vres2
-ETOT  1   6.8830346897725     -7.967E+01 6.063E-01 8.829E+02
 ETOT  2   6.4424274208655     -4.406E-01 8.283E-03 8.121E+00
 ETOT  3   6.4378977923811     -4.530E-03 5.102E-04 7.640E-01
 ETOT  4   6.4376777487860     -2.200E-04 1.241E-05 1.341E-02
 ETOT  5   6.4376743332259     -3.416E-06 1.245E-06 3.438E-04
 ETOT  6   6.4376742330732     -1.002E-07 3.086E-08 2.593E-05
 ETOT  7   6.4376742269662     -6.107E-09 2.925E-09 1.823E-06
 ETOT  8   6.4376742265035     -4.627E-10 9.020E-11 1.155E-08
 ETOT  9   6.4376742264988     -4.704E-12 8.574E-12 4.415E-10
 
 At SCF step    9       vres2   =  4.41E-10 < tolvrs=  1.00E-08 =>converged.
================================================================================
 
 ----iterations are completed or convergence reached----
 
 Mean square residual over all n,k,spin=   12.759E-15; max=  85.736E-13
 
 Thirteen components of 2nd-order total energy (hartree) are
 1,2,3: 0th-order hamiltonian combined with 1st-order wavefunctions
     kin0=   8.49036325E+01 eigvalue=  -2.36216642E+00  local=  -5.05671867E+01
 4,5,6: 1st-order hamiltonian combined with 1st and 0th-order wfs
 loc psp =  -5.25714532E+01  Hartree=   1.92476433E+01     xc=  -7.11675514E+00
 note that "loc psp" includes a xc core correction that could be resolved
 7,8,9: eventually, occupation + non-local contributions
    edocc=   0.00000000E+00     enl0=   3.60095009E+01   enl1=  -1.07657884E+02
 1-9 gives the relaxation energy (to be shifted if some occ is /=2.0)
   erelax=  -8.01146684E+01
 10,11,12 Non-relaxation  contributions : frozen-wavefunctions and Ewald
 fr.local=   1.12136231E+01 fr.nonlo=   6.08535699E+01  Ewald=   1.69606673E+01
 13,14 Frozen wf xc core corrections (1) and (2)
 frxc 1  =  -7.98973849E+00  frxc 2 =   5.51422073E+00
 Resulting in :
 2DEtotal=    0.6437674226E+01 Ha. Also 2DEtotal=    0.175178024543E+03 eV
    (2DErelax=   -8.0114668363E+01 Ha. 2DEnonrelax=    8.6552342590E+01 Ha)
    (  non-var. 2DEtotal :    6.4376742240E+00 Ha)
 
 
--------------------------------------------------------------------------------
 Perturbation wavevector (in red.coord.)   0.000000  0.500000  0.250000
 Perturbation : displacement of atom   2   along direction   2
 The set of symmetries contains only one element for this perturbation.
 symkpt : not enough symmetry to change the number of k points.
 
--------------------------------------------------------------------------------
 
-inwffil : will read wavefunctions from disk file ddbi_DS2_WFK
--------------------------------------------------------------------------------
 
-inwffil : will read wavefunctions from disk file ddbi_DS2_WFK
 Initialisation of the first-order wave-functions :
  ireadwf=   0
 
     iter   2DEtotal(Ha)        deltaE(Ha) residm    vres2
-ETOT  1   8.4634845144420     -9.480E+01 7.720E-01 4.094E+03
 ETOT  2   7.5130563993028     -9.504E-01 5.456E-03 2.830E+02
 ETOT  3   7.4380203230041     -7.504E-02 2.497E-04 8.692E+00
 ETOT  4   7.4365433857095     -1.477E-03 9.348E-06 5.399E-01
 ETOT  5   7.4364555697378     -8.782E-05 3.877E-07 1.047E-02
 ETOT  6   7.4364534589827     -2.111E-06 2.974E-08 5.514E-04
 ETOT  7   7.4364533494685     -1.095E-07 9.982E-10 8.544E-06
 ETOT  8   7.4364533475814     -1.887E-09 3.744E-11 4.204E-07
 ETOT  9   7.4364533474790     -1.024E-10 4.414E-12 2.958E-08
 ETOT 10   7.4364533474728     -6.224E-12 6.568E-14 1.668E-09
 
 At SCF step   10       vres2   =  1.67E-09 < tolvrs=  1.00E-08 =>converged.
================================================================================
 
 ----iterations are completed or convergence reached----
 
 Mean square residual over all n,k,spin=   39.828E-16; max=  65.681E-15
 
 Thirteen components of 2nd-order total energy (hartree) are
 1,2,3: 0th-order hamiltonian combined with 1st-order wavefunctions
     kin0=   8.52437868E+01 eigvalue=  -2.14632326E+00  local=  -5.07287900E+01
 4,5,6: 1st-order hamiltonian combined with 1st and 0th-order wfs
 loc psp =  -8.39185170E+01  Hartree=   3.43394391E+01     xc=  -7.17744184E+00
 note that "loc psp" includes a xc core correction that could be resolved
 7,8,9: eventually, occupation + non-local contributions
    edocc=   0.00000000E+00     enl0=   3.62948024E+01   enl1=  -1.07732428E+02
 1-9 gives the relaxation energy (to be shifted if some occ is /=2.0)
   erelax=  -9.58254718E+01
 10,11,12 Non-relaxation  contributions : frozen-wavefunctions and Ewald
 fr.local=   1.12136231E+01 fr.nonlo=   6.08535700E+01  Ewald=   3.36702498E+01
 13,14 Frozen wf xc core corrections (1) and (2)
 frxc 1  =  -7.98973849E+00  frxc 2 =   5.51422073E+00
 Resulting in :
 2DEtotal=    0.7436453347E+01 Ha. Also 2DEtotal=    0.202356186595E+03 eV
    (2DErelax=   -9.5825471761E+01 Ha. 2DEnonrelax=    1.0326192511E+02 Ha)
    (  non-var. 2DEtotal :    7.4364525986E+00 Ha)
 
 
--------------------------------------------------------------------------------
 Perturbation wavevector (in red.coord.)   0.000000  0.500000  0.250000
 Perturbation : displacement of atom   2   along direction   3
 The set of symmetries contains only one element for this perturbation.
 symkpt : not enough symmetry to change the number of k points.
 
--------------------------------------------------------------------------------
 
-inwffil : will read wavefunctions from disk file ddbi_DS2_WFK
--------------------------------------------------------------------------------
 
-inwffil : will read wavefunctions from disk file ddbi_DS2_WFK
 Initialisation of the first-order wave-functions :
  ireadwf=   0
 
     iter   2DEtotal(Ha)        deltaE(Ha) residm    vres2
-ETOT  1   7.6039472502984     -8.416E+01 5.628E-01 1.476E+03
 ETOT  2   7.1137913958729     -4.902E-01 6.672E-03 3.801E+01
 ETOT  3   7.1023378733309     -1.145E-02 3.187E-04 3.221E+00
 ETOT  4   7.1016829962962     -6.549E-04 8.944E-06 1.971E-01
 ETOT  5   7.1016405624831     -4.243E-05 5.723E-07 7.403E-03
 ETOT  6   7.1016391012024     -1.461E-06 1.476E-08 3.885E-04
 ETOT  7   7.1016390291493     -7.205E-08 1.392E-09 9.077E-06
 ETOT  8   7.1016390269742     -2.175E-09 6.277E-11 3.370E-07
 ETOT  9   7.1016390269028     -7.140E-11 4.236E-12 1.152E-08
 ETOT 10   7.1016390269003     -2.487E-12 4.267E-13 6.712E-10
 
 At SCF step   10       vres2   =  6.71E-10 < tolvrs=  1.00E-08 =>converged.
================================================================================
 
 ----iterations are completed or convergence reached----
 
 Mean square residual over all n,k,spin=   23.614E-16; max=  42.669E-14
 
 Thirteen components of 2nd-order total energy (hartree) are
 1,2,3: 0th-order hamiltonian combined with 1st-order wavefunctions
     kin0=   8.47242433E+01 eigvalue=  -2.19951683E+00  local=  -5.05863471E+01
 4,5,6: 1st-order hamiltonian combined with 1st and 0th-order wfs
 loc psp =  -6.12783083E+01  Hartree=   2.34796994E+01     xc=  -7.02065821E+00
 note that "loc psp" includes a xc core correction that could be resolved
 7,8,9: eventually, occupation + non-local contributions
    edocc=   0.00000000E+00     enl0=   3.62686166E+01   enl1=  -1.08053765E+02
 1-9 gives the relaxation energy (to be shifted if some occ is /=2.0)
   erelax=  -8.46660366E+01
 10,11,12 Non-relaxation  contributions : frozen-wavefunctions and Ewald
 fr.local=   1.12136234E+01 fr.nonlo=   6.08535694E+01  Ewald=   2.21760006E+01
 13,14 Frozen wf xc core corrections (1) and (2)
 frxc 1  =  -7.98973851E+00  frxc 2 =   5.51422077E+00
 Resulting in :
 2DEtotal=    0.7101639027E+01 Ha. Also 2DEtotal=    0.193245425596E+03 eV
    (2DErelax=   -8.4666036623E+01 Ha. 2DEnonrelax=    9.1767675650E+01 Ha)
    (  non-var. 2DEtotal :    7.1016387516E+00 Ha)
 
================================================================================
 
 ---- first-order wavefunction calculations are completed ----
 
 
 ==> Compute Derivative Database <==
  
  2nd-order matrix (non-cartesian coordinates, masses not included,
   asr not included )
     j1       j2             matrix element
  dir pert dir pert     real part     imaginary part
  
   1    1   1    1         6.4376653713        -0.0000000000
   1    1   2    1         3.2188265790         0.0000000625
   1    1   3    1         3.2188357612         0.0000000064
   1    1   1    2        -5.2730292282         0.5081170584
   1    1   2    2        -2.6365144046         0.2540584960
   1    1   3    2        -2.6365144392         0.2540584752
  
   2    1   1    1         3.2188264051         0.0000003549
   2    1   2    1         7.4363871745         0.0000000000
   2    1   3    1         3.8929036342         0.2089964353
   2    1   1    2        -2.6365139393         0.2540583396
   2    1   2    2        -0.7304291946         0.4949600274
   2    1   3    2        -2.8830263033         0.2312662971
  
   3    1   1    1         3.2188355227        -0.0000002649
   3    1   2    1         3.8929049381        -0.2089975528
   3    1   3    1         7.1015820221        -0.0000000000
   3    1   1    2        -2.6365143325         0.2540589267
   3    1   2    2        -2.8830257541         0.2312656861
   3    1   3    2        -3.0533233171         2.6917601960
  
   1    2   1    1        -5.2730292277        -0.5081170589
   1    2   2    1        -2.6365144194        -0.2540584976
   1    2   3    1        -2.6365144608        -0.2540584557
   1    2   1    2         6.4376742240        -0.0000000000
   1    2   2    2         3.2188369395        -0.0000000695
   1    2   3    2         3.2188371288        -0.0000000038
  
   2    2   1    1        -2.6365139205        -0.2540583378
   2    2   2    1        -0.7304291969        -0.4949600250
   2    2   3    1        -2.8830263576        -0.2312662781
   2    2   1    2         3.2188367637        -0.0000003494
   2    2   2    2         7.4364525986         0.0000000000
   2    2   3    2         3.8929266160        -0.2089965421
  
   3    2   1    1        -2.6365143073        -0.2540589469
   3    2   2    1        -2.8830257032        -0.2312657059
   3    2   3    1        -3.0533233179        -2.6917601957
   3    2   1    2         3.2188368888         0.0000002621
   3    2   2    2         3.8929279147         0.2089976576
   3    2   3    2         7.1016387516        -0.0000000000
  
  
  Dynamical matrix, in cartesian coordinates,
   if specified in the inputs, asr has been imposed
     j1       j2             matrix element
  dir pert dir pert     real part    imaginary part
  
   1    1   1    1         0.1234962869         0.0000000041
   1    1   2    1        -0.0029446143        -0.0000000157
   1    1   3    1        -0.0031348765        -0.0039136641
   1    1   1    2        -0.0308110498         0.0302640246
   1    1   2    2        -0.0679315228        -0.0207490309
   1    1   3    2        -0.0217492056         0.0205685904
  
   2    1   1    1        -0.0029446131        -0.0000000052
   2    1   2    1         0.1234959442         0.0000000168
   2    1   3    1         0.0031348197         0.0039136654
   2    1   1    2        -0.0679315161        -0.0207490423
   2    1   2    2        -0.0308110418         0.0302640140
   2    1   3    2         0.0217492128        -0.0205685921
  
[...]
   2.176771E-03
 Phonon frequencies in cm-1    :
-  1.110785E+02  1.110795E+02  3.704403E+02  4.000038E+02  4.777457E+02
-  4.777459E+02
 
== END DATASET(S) ==============================================================
================================================================================
  
 -outvars: echo values of variables after computation  --------
            acell      7.3076524878E+00  7.3076524882E+00  7.3076524889E+00 Bohr
              amu      2.80855000E+01
           diemac      1.20000000E+01
             ecut      1.60000000E+01 Hartree
           etotal1     7.1016390177E+00
           etotal2     7.1016390269E+00
           etotal3     7.0869662017E+00
           etotal4     6.7522359973E+00
           etotal5     6.7614832817E+00
           etotal6     7.0869661970E+00
           etotal7     7.1016390263E+00
           etotal8     6.7614832769E+00
           etotal9     6.7522360009E+00
           etotal10    7.8992413821E+00
           etotal11    7.4364533399E+00
           etotal12    7.7098944780E+00
           etotal13    7.4364533507E+00
           etotal14    7.1274714391E+00
           etotal15    7.4364533492E+00
           etotal16    7.1988965274E+00
           etotal17    7.7098944843E+00
           etotal18    7.4364533419E+00
           etotal19    7.8992413729E+00
            fcart1     0.0000000000E+00  0.0000000000E+00  0.0000000000E+00
                       0.0000000000E+00  0.0000000000E+00  0.0000000000E+00
            fcart2     0.0000000000E+00  0.0000000000E+00  0.0000000000E+00
                       0.0000000000E+00  0.0000000000E+00  0.0000000000E+00
            fcart3     0.0000000000E+00  0.0000000000E+00  0.0000000000E+00
                       0.0000000000E+00  0.0000000000E+00  0.0000000000E+00
            fcart4     0.0000000000E+00  0.0000000000E+00  0.0000000000E+00
                       0.0000000000E+00  0.0000000000E+00  0.0000000000E+00
            fcart5     0.0000000000E+00  0.0000000000E+00  0.0000000000E+00
                       0.0000000000E+00  0.0000000000E+00  0.0000000000E+00
            fcart6     0.0000000000E+00  0.0000000000E+00  0.0000000000E+00
                       0.0000000000E+00  0.0000000000E+00  0.0000000000E+00
            fcart7     0.0000000000E+00  0.0000000000E+00  0.0000000000E+00
                       0.0000000000E+00  0.0000000000E+00  0.0000000000E+00
            fcart8     0.0000000000E+00  0.0000000000E+00  0.0000000000E+00
                       0.0000000000E+00  0.0000000000E+00  0.0000000000E+00
            fcart9     0.0000000000E+00  0.0000000000E+00  0.0000000000E+00
                       0.0000000000E+00  0.0000000000E+00  0.0000000000E+00
            fcart10    0.0000000000E+00  0.0000000000E+00  0.0000000000E+00
                       0.0000000000E+00  0.0000000000E+00  0.0000000000E+00
            fcart11    0.0000000000E+00  0.0000000000E+00  0.0000000000E+00
                       0.0000000000E+00  0.0000000000E+00  0.0000000000E+00
            fcart12    0.0000000000E+00  0.0000000000E+00  0.0000000000E+00
                       0.0000000000E+00  0.0000000000E+00  0.0000000000E+00
            fcart13    0.0000000000E+00  0.0000000000E+00  0.0000000000E+00
                       0.0000000000E+00  0.0000000000E+00  0.0000000000E+00
            fcart14    0.0000000000E+00  0.0000000000E+00  0.0000000000E+00
                       0.0000000000E+00  0.0000000000E+00  0.0000000000E+00
            fcart15    0.0000000000E+00  0.0000000000E+00  0.0000000000E+00
                       0.0000000000E+00  0.0000000000E+00  0.0000000000E+00
            fcart16    0.0000000000E+00  0.0000000000E+00  0.0000000000E+00
                       0.0000000000E+00  0.0000000000E+00  0.0000000000E+00
            fcart17    0.0000000000E+00  0.0000000000E+00  0.0000000000E+00
                       0.0000000000E+00  0.0000000000E+00  0.0000000000E+00
            fcart18    0.0000000000E+00  0.0000000000E+00  0.0000000000E+00
                       0.0000000000E+00  0.0000000000E+00  0.0000000000E+00
            fcart19    0.0000000000E+00  0.0000000000E+00  0.0000000000E+00
                       0.0000000000E+00  0.0000000000E+00  0.0000000000E+00
-          fftalg         312
           irdwfk           1
              ixc          11
           jdtset        1    2    3    4    5    6    7    8    9   10
                        11   12   13   14   15   16   17   18   19
              kpt     -1.25000000E-01 -2.50000000E-01  0.00000000E+00
                      -2.50000000E-01 -1.25000000E-01  0.00000000E+00
                      -1.25000000E-01 -1.25000000E-01  1.25000000E-01
                      -1.25000000E-01  5.00000000E-01  0.00000000E+00
                      -2.50000000E-01 -3.75000000E-01  0.00000000E+00
                      -1.25000000E-01 -3.75000000E-01  1.25000000E-01
                      -3.75000000E-01 -2.50000000E-01  0.00000000E+00
                      -2.50000000E-01 -2.50000000E-01  1.25000000E-01
                      -1.25000000E-01 -2.50000000E-01  2.50000000E-01
                       5.00000000E-01 -1.25000000E-01  0.00000000E+00
                      -3.75000000E-01 -1.25000000E-01  1.25000000E-01
                      -2.50000000E-01 -1.25000000E-01  2.50000000E-01
                      -1.25000000E-01 -1.25000000E-01  3.75000000E-01
                      -1.25000000E-01  2.50000000E-01  0.00000000E+00
                      -2.50000000E-01  3.75000000E-01  0.00000000E+00
                      -1.25000000E-01  3.75000000E-01  1.25000000E-01
                      -3.75000000E-01  5.00000000E-01  0.00000000E+00
                      -2.50000000E-01  5.00000000E-01  1.25000000E-01
                      -1.25000000E-01  5.00000000E-01  2.50000000E-01
                       5.00000000E-01 -3.75000000E-01  0.00000000E+00
                      -3.75000000E-01 -3.75000000E-01  1.25000000E-01
                      -2.50000000E-01 -3.75000000E-01  2.50000000E-01
                      -1.25000000E-01 -3.75000000E-01  3.75000000E-01
                       3.75000000E-01 -2.50000000E-01  0.00000000E+00
                       5.00000000E-01 -2.50000000E-01  1.25000000E-01
                      -3.75000000E-01 -2.50000000E-01  2.50000000E-01
                      -2.50000000E-01 -2.50000000E-01  3.75000000E-01
                      -1.25000000E-01 -2.50000000E-01  5.00000000E-01
                       2.50000000E-01 -1.25000000E-01  0.00000000E+00
                       3.75000000E-01 -1.25000000E-01  1.25000000E-01
                       5.00000000E-01 -1.25000000E-01  2.50000000E-01
                      -3.75000000E-01 -1.25000000E-01  3.75000000E-01
                      -2.50000000E-01 -1.25000000E-01  5.00000000E-01
                      -1.25000000E-01 -1.25000000E-01 -3.75000000E-01
                      -1.25000000E-01  0.00000000E+00  0.00000000E+00
                      -2.50000000E-01  1.25000000E-01  0.00000000E+00
                      -1.25000000E-01  1.25000000E-01  1.25000000E-01
                      -3.75000000E-01  2.50000000E-01  0.00000000E+00
                      -2.50000000E-01  2.50000000E-01  1.25000000E-01
                      -1.25000000E-01  2.50000000E-01  2.50000000E-01
                       5.00000000E-01  3.75000000E-01  0.00000000E+00
                      -3.75000000E-01  3.75000000E-01  1.25000000E-01
                      -2.50000000E-01  3.75000000E-01  2.50000000E-01
                      -1.25000000E-01  3.75000000E-01  3.75000000E-01
                       3.75000000E-01  5.00000000E-01  0.00000000E+00
                       5.00000000E-01  5.00000000E-01  1.25000000E-01
                      -3.75000000E-01  5.00000000E-01  2.50000000E-01
                      -2.50000000E-01  5.00000000E-01  3.75000000E-01
                      -1.25000000E-01  5.00000000E-01  5.00000000E-01
                       2.50000000E-01 -3.75000000E-01  0.00000000E+00
                       outvar_i_n : Printing only first  50 k-points.
           kptopt           3
         kptrlatt        4   -4    4     -4    4    4     -4   -4    4
          kptrlen      4.13383250E+01
P           mkmem          10
P          mkqmem          10
P          mk1mem          10
            natom           2
            nband           4
           ndtset          19
            ngfft          30      30      30
             nkpt         256
             nqpt           1
            nstep          40
             nsym           1
           ntypat           1
              occ      2.000000  2.000000  2.000000  2.000000
        optdriver           1
              qpt1    -2.50000000E-01  2.50000000E-01  2.50000000E-01
              qpt2     0.00000000E+00  5.00000000E-01  2.50000000E-01
              qpt3     2.50000000E-01  5.00000000E-01  2.50000000E-01
              qpt4     5.00000000E-01  5.00000000E-01  2.50000000E-01
              qpt5    -2.50000000E-01  5.00000000E-01  2.50000000E-01
              qpt6     0.00000000E+00 -2.50000000E-01  2.50000000E-01
              qpt7     2.50000000E-01 -2.50000000E-01  2.50000000E-01
              qpt8     5.00000000E-01 -2.50000000E-01  2.50000000E-01
              qpt9    -2.50000000E-01 -2.50000000E-01  2.50000000E-01
              qpt10    0.00000000E+00  0.00000000E+00  5.00000000E-01
              qpt11    2.50000000E-01  0.00000000E+00  5.00000000E-01
              qpt12    5.00000000E-01  0.00000000E+00  5.00000000E-01
              qpt13    0.00000000E+00  2.50000000E-01  5.00000000E-01
              qpt14    2.50000000E-01  2.50000000E-01  5.00000000E-01
              qpt15    5.00000000E-01  2.50000000E-01  5.00000000E-01
              qpt16   -2.50000000E-01  2.50000000E-01  5.00000000E-01
              qpt17    0.00000000E+00  5.00000000E-01  5.00000000E-01
              qpt18    2.50000000E-01  5.00000000E-01  5.00000000E-01
              qpt19    5.00000000E-01  5.00000000E-01  5.00000000E-01
          rfatpol           1       2
            rfdir           1       1       1
           rfphon           1
            rprim      7.0710678120E-01  7.0710678117E-01  6.9650239756E-11
                       3.1527828871E-11  7.0710678117E-01  7.0710678120E-01
                       7.0710678119E-01 -2.1777182160E-11  7.0710678119E-01
           shiftk      5.00000000E-01  5.00000000E-01  5.00000000E-01
          spgroup           1
           strten1     0.0000000000E+00  0.0000000000E+00  0.0000000000E+00
                       0.0000000000E+00  0.0000000000E+00  0.0000000000E+00
           strten2     0.0000000000E+00  0.0000000000E+00  0.0000000000E+00
                       0.0000000000E+00  0.0000000000E+00  0.0000000000E+00
           strten3     0.0000000000E+00  0.0000000000E+00  0.0000000000E+00
                       0.0000000000E+00  0.0000000000E+00  0.0000000000E+00
           strten4     0.0000000000E+00  0.0000000000E+00  0.0000000000E+00
                       0.0000000000E+00  0.0000000000E+00  0.0000000000E+00
           strten5     0.0000000000E+00  0.0000000000E+00  0.0000000000E+00
                       0.0000000000E+00  0.0000000000E+00  0.0000000000E+00
           strten6     0.0000000000E+00  0.0000000000E+00  0.0000000000E+00
                       0.0000000000E+00  0.0000000000E+00  0.0000000000E+00
           strten7     0.0000000000E+00  0.0000000000E+00  0.0000000000E+00
                       0.0000000000E+00  0.0000000000E+00  0.0000000000E+00
           strten8     0.0000000000E+00  0.0000000000E+00  0.0000000000E+00
                       0.0000000000E+00  0.0000000000E+00  0.0000000000E+00
           strten9     0.0000000000E+00  0.0000000000E+00  0.0000000000E+00
                       0.0000000000E+00  0.0000000000E+00  0.0000000000E+00
           strten10    0.0000000000E+00  0.0000000000E+00  0.0000000000E+00
                       0.0000000000E+00  0.0000000000E+00  0.0000000000E+00
           strten11    0.0000000000E+00  0.0000000000E+00  0.0000000000E+00
                       0.0000000000E+00  0.0000000000E+00  0.0000000000E+00
           strten12    0.0000000000E+00  0.0000000000E+00  0.0000000000E+00
                       0.0000000000E+00  0.0000000000E+00  0.0000000000E+00
           strten13    0.0000000000E+00  0.0000000000E+00  0.0000000000E+00
                       0.0000000000E+00  0.0000000000E+00  0.0000000000E+00
           strten14    0.0000000000E+00  0.0000000000E+00  0.0000000000E+00
                       0.0000000000E+00  0.0000000000E+00  0.0000000000E+00
           strten15    0.0000000000E+00  0.0000000000E+00  0.0000000000E+00
                       0.0000000000E+00  0.0000000000E+00  0.0000000000E+00
           strten16    0.0000000000E+00  0.0000000000E+00  0.0000000000E+00
                       0.0000000000E+00  0.0000000000E+00  0.0000000000E+00
           strten17    0.0000000000E+00  0.0000000000E+00  0.0000000000E+00
                       0.0000000000E+00  0.0000000000E+00  0.0000000000E+00
           strten18    0.0000000000E+00  0.0000000000E+00  0.0000000000E+00
                       0.0000000000E+00  0.0000000000E+00  0.0000000000E+00
           strten19    0.0000000000E+00  0.0000000000E+00  0.0000000000E+00
                       0.0000000000E+00  0.0000000000E+00  0.0000000000E+00
           tolvrs      1.00000000E-08
            typat      1  1
              wtk        0.00391    0.00391    0.00391    0.00391    0.00391    0.00391
                         0.00391    0.00391    0.00391    0.00391    0.00391    0.00391
                         0.00391    0.00391    0.00391    0.00391    0.00391    0.00391
                         0.00391    0.00391    0.00391    0.00391    0.00391    0.00391
                         0.00391    0.00391    0.00391    0.00391    0.00391    0.00391
                         0.00391    0.00391    0.00391    0.00391    0.00391    0.00391
                         0.00391    0.00391    0.00391    0.00391    0.00391    0.00391
                         0.00391    0.00391    0.00391    0.00391    0.00391    0.00391
                         0.00391    0.00391
                       outvars : Printing only first  50 k-points.
           xangst      1.1638012194E-10  8.8647964307E-11 -3.2058171592E-12
                       1.3672062155E+00  1.3672062153E+00  1.3672062157E+00
            xcart      2.1992655779E-10  1.6752037478E-10 -6.0581164630E-12
                       2.5836453144E+00  2.5836453142E+00  2.5836453148E+00
             xred      3.8076535396E-11 -5.6571522372E-12  4.4847551496E-12
                       2.4999999996E-01  2.5000000001E-01  2.5000000000E-01
            znucl       14.00000
 
================================================================================


- Timing analysis has been suppressed with timopt=0



================================================================================

 Suggested references for the acknowledgment of ABINIT usage.

 The users of ABINIT have little formal obligations with respect to the ABINIT group
 (those specified in the GNU General Public License, http://www.gnu.org/copyleft/gpl.txt).
 However, it is common practice in the scientific literature,
 to acknowledge the efforts of people that have made the research possible.
 In this spirit, please find below suggested citations of work written by ABINIT developers,
 corresponding to implementations inside of ABINIT that you have used in the present run.
 Note also that it will be of great value to readers of publications presenting these results,
 to read papers enabling them to understand the theoretical formalism and details
 of the ABINIT implementation.
 For information on why they are suggested, see also https://docs.abinit.org/theory/acknowledgments.
-
- [1] Recent developments in the ABINIT software package.
- Computer Phys. Comm. 205, 106 (2016).
- X.Gonze, F.Jollet, F.Abreu Araujo, D.Adams, B.Amadon, T.Applencourt,
- C.Audouze, J.-M.Beuken, J.Bieder, A.Bokhanchuk, E.Bousquet, F.Bruneval
- D.Caliste, M.Cote, F.Dahm, F.Da Pieve, M.Delaveau, M.Di Gennaro,
- B.Dorado, C.Espejo, G.Geneste, L.Genovese, A.Gerossier, M.Giantomassi,
- Y.Gillet, D.R.Hamann, L.He, G.Jomard, J.Laflamme Janssen, S.Le Roux,
- A.Levitt, A.Lherbier, F.Liu, I.Lukacevic, A.Martin, C.Martins,
- M.J.T.Oliveira, S.Ponce, Y.Pouillon, T.Rangel, G.-M.Rignanese,
- A.H.Romero, B.Rousseau, O.Rubel, A.A.Shukri, M.Stankovski, M.Torrent,
- M.J.Van Setten, B.Van Troeye, M.J.Verstraete, D.Waroquier, J.Wiktor,
- B.Xu, A.Zhou, J.W.Zwanziger.
- Comment: the fourth generic paper describing the ABINIT project.
- Note that a version of this paper, that is not formatted for Computer Phys. Comm. 
- is available at https://www.abinit.org/about/ABINIT16.pdf .
- The licence allows the authors to put it on the Web.
- DOI and bibtex: see https://docs.abinit.org/theory/bibliography/#gonze2016
-
- [2] First-principles responses of solids to atomic displacements and homogeneous electric fields:,
- implementation of a conjugate-gradient algorithm. X. Gonze, Phys. Rev. B55, 10337 (1997).
- Comment: Non-vanishing rfphon and/or rfelfd, in the norm-conserving case.
- DOI and bibtex: see https://docs.abinit.org/theory/bibliography/#gonze1997
-
- [3] Dynamical matrices, Born effective charges, dielectric permittivity tensors, and ,
- interatomic force constants from density-functional perturbation theory,
- X. Gonze and C. Lee, Phys. Rev. B55, 10355 (1997).
- Comment: Non-vanishing rfphon and/or rfelfd, in the norm-conserving case.
- DOI and bibtex: see https://docs.abinit.org/theory/bibliography/#gonze1997a
-
- [4] Optimized norm-conserving Vanderbilt pseudopotentials.
- D.R. Hamann, Phys. Rev. B 88, 085117 (2013).
- Comment: Some pseudopotential generated using the ONCVPSP code were used.
- DOI and bibtex: see https://docs.abinit.org/theory/bibliography/#hamann2013
-
- [5] ABINIT: First-principles approach of materials and nanosystem properties.
- Computer Phys. Comm. 180, 2582-2615 (2009).
- X. Gonze, B. Amadon, P.-M. Anglade, J.-M. Beuken, F. Bottin, P. Boulanger, F. Bruneval,
- D. Caliste, R. Caracas, M. Cote, T. Deutsch, L. Genovese, Ph. Ghosez, M. Giantomassi
- S. Goedecker, D.R. Hamann, P. Hermet, F. Jollet, G. Jomard, S. Leroux, M. Mancini, S. Mazevet,
- M.J.T. Oliveira, G. Onida, Y. Pouillon, T. Rangel, G.-M. Rignanese, D. Sangalli, R. Shaltaf,
- M. Torrent, M.J. Verstraete, G. Zerah, J.W. Zwanziger
- Comment: the third generic paper describing the ABINIT project.
- Note that a version of this paper, that is not formatted for Computer Phys. Comm. 
- is available at https://www.abinit.org/about/ABINIT_CPC_v10.pdf .
- The licence allows the authors to put it on the Web.
- DOI and bibtex: see https://docs.abinit.org/theory/bibliography/#gonze2009
-
- [6] A brief introduction to the ABINIT software package.
- Z. Kristallogr. 220, 558-562 (2005).
- X. Gonze, G.-M. Rignanese, M. Verstraete, J.-M. Beuken, Y. Pouillon, R. Caracas, F. Jollet,
- M. Torrent, G. Zerah, M. Mikami, Ph. Ghosez, M. Veithen, J.-Y. Raty, V. Olevano, F. Bruneval,
- L. Reining, R. Godby, G. Onida, D.R. Hamann, and D.C. Allan.
- Comment: the second generic paper describing the ABINIT project. Note that this paper
- should be cited especially if you are using the GW part of ABINIT, as several authors
- of this part are not in the list of authors of the first or third paper.
- The .pdf of the latter paper is available at https://www.abinit.org/about/zfk_0505-06_558-562.pdf.
- Note that it should not redistributed (Copyright by Oldenburg Wissenshaftverlag,
- the licence allows the authors to put it on the Web).
- DOI and bibtex: see https://docs.abinit.org/theory/bibliography/#gonze2005
-
- Proc.   0 individual time (sec): cpu=        670.6  wall=        734.1
 
================================================================================
 
 Calculation completed.
.Delivered   0 WARNINGs and 171 COMMENTs to log file.
+Overall time at end (sec) : cpu=      20131.1  wall=      20554.5
