  ABINIT 8.11.13
  
  Give name for formatted input file: 
sp.in
  Give name for formatted output file:
sp.out
  Give root name for generic input files:
spi
  Give root name for generic output files:
spo
  Give root name for generic temporary files:
sp
 
--- !COMMENT
src_file: m_dtfil.F90
src_line: 1450
message: |
    Output file: sp.out already exists.
...
 
 
--- !COMMENT
src_file: m_dtfil.F90
src_line: 1474
message: |
    Renaming old sp.out to sp.out0010
...
 

.Version 8.11.13 of ABINIT 
.(MPI version, prepared for a x86_64_linux_intel18.0 computer) 

.Copyright (C) 1998-2019 ABINIT group . 
 ABINIT comes with ABSOLUTELY NO WARRANTY.
 It is free software, and you are welcome to redistribute it
 under certain conditions (GNU General Public License,
 see ~abinit/COPYING or http://www.gnu.org/copyleft/gpl.txt).

 ABINIT is a project of the Universite Catholique de Louvain,
 Corning Inc. and other collaborators, see ~abinit/doc/developers/contributors.txt .
 Please read https://docs.abinit.org/theory/acknowledgments for suggested
 acknowledgments of the ABINIT effort.
 For more information, see https://www.abinit.org .

.Starting date : Thu 12 Dec 2019.
- ( at 14h53 )
  
 
 ++++++++++++++++++++++++++++++++++++++++++++++++++++++++++++++++++++++++++++++
 
 === Build Information === 
  Version       : 8.11.13
  Build target  : x86_64_linux_intel18.0
  Build date    : 20191206
 
 === Compiler Suite === 
  C compiler       : intel18.0
  C++ compiler     : gnu8.2
  Fortran compiler : intel18.0
  CFLAGS           :  -g -O2
  CXXFLAGS         :  -g -O2 -mtune=native -march=native
  FCFLAGS          : -g -O2
  FC_LDFLAGS       :    -static-intel -static-libgcc
 
 === Optimizations === 
  Debug level        : basic
  Optimization level : standard
  Architecture       : intel_xeon
 
 === Multicore === 
  Parallel build : yes
  Parallel I/O   : yes
  openMP support : no
  GPU support    : no
 
 === Connectors / Fallbacks === 
  Connectors on : yes
  Fallbacks on  : yes
  DFT flavor    : libxc-fallback
  FFT flavor    : dfti
  LINALG flavor : mkl
  TIMER flavor  : abinit
  TRIO flavor   : netcdf
 
 === Experimental features === 
  Exports             : no
  GW double-precision : yes
 
 ++++++++++++++++++++++++++++++++++++++++++++++++++++++++++++++++++++++++++++++
 

 ++++++++++++++++++++++++++++++++++++++++++++++++++++++++++++++++++++++++++++++
 Default optimizations:
   --- None ---


 ++++++++++++++++++++++++++++++++++++++++++++++++++++++++++++++++++++++++++++++


 ++++++++++++++++++++++++++++++++++++++++++++++++++++++++++++++++++++++++++++++
 CPP options activated during the build:

                  CC_INTEL                   CXX_GNU                  FC_INTEL
 
 HAVE_FC_ALLOCATABLE_DT...             HAVE_FC_ASYNC  HAVE_FC_COMMAND_ARGUMENT
 
      HAVE_FC_COMMAND_LINE        HAVE_FC_CONTIGUOUS           HAVE_FC_CPUTIME
 
             HAVE_FC_ETIME              HAVE_FC_EXIT             HAVE_FC_FLUSH
 
             HAVE_FC_GAMMA            HAVE_FC_GETENV            HAVE_FC_GETPID
 
   HAVE_FC_IEEE_ARITHMETIC   HAVE_FC_IEEE_EXCEPTIONS             HAVE_FC_IOMSG
 
     HAVE_FC_ISO_C_BINDING  HAVE_FC_ISO_FORTRAN_2008        HAVE_FC_LONG_LINES
 
        HAVE_FC_MOVE_ALLOC  HAVE_FC_ON_THE_FLY_SHAPE           HAVE_FC_PRIVATE
 
         HAVE_FC_PROTECTED           HAVE_FC_SHIFTLR         HAVE_FC_STREAM_IO
 
            HAVE_FC_SYSTEM                  HAVE_FFT             HAVE_FFT_DFTI
 
              HAVE_FFT_MPI           HAVE_FFT_SERIAL               HAVE_GW_DPC
 
        HAVE_LIBPAW_ABINIT      HAVE_LIBTETRA_ABINIT                HAVE_LIBXC
 
               HAVE_LINALG         HAVE_LINALG_AXPBY        HAVE_LINALG_GEMM3M
 
  HAVE_LINALG_MKL_IMATCOPY   HAVE_LINALG_MKL_OMATADD  HAVE_LINALG_MKL_OMATCOPY
 
   HAVE_LINALG_MKL_THREADS        HAVE_LINALG_SERIAL                  HAVE_MPI
 
                 HAVE_MPI2       HAVE_MPI_IALLREDUCE        HAVE_MPI_IALLTOALL
 
       HAVE_MPI_IALLTOALLV           HAVE_MPI_IBCAST         HAVE_MPI_IGATHERV
 
        HAVE_MPI_INTEGER16               HAVE_MPI_IO HAVE_MPI_TYPE_CREATE_S...
 
               HAVE_NETCDF           HAVE_NETCDF_MPI             HAVE_OS_LINUX
 
         HAVE_TIMER_ABINIT              USE_MACROAVE                            
 ++++++++++++++++++++++++++++++++++++++++++++++++++++++++++++++++++++++++++++++

- input  file    -> sp.in
- output file    -> sp.out
- root for input  files -> spi
- root for output files -> spo
 
Netcdf library supports MPI-IO
-instrng: 54 lines of input have been read from file sp.in
 

 Please give name of formatted atomic psp file
 For atom type 1, psp file is ../../PsP/Ca.psp8

 Please give name of formatted atomic psp file
 For atom type 2, psp file is ../../PsP/Ti.psp8

 Please give name of formatted atomic psp file
 For atom type 3, psp file is ../../PsP/O.psp8
  read the values zionpsp= 10.0 , pspcod=   8 , lmax=   2
  read the values zionpsp= 12.0 , pspcod=   8 , lmax=   2
  read the values zionpsp=  6.0 , pspcod=   8 , lmax=   2
 
 inpspheads: deduce mpsang = 3, n1xccc = 2501.

======================================================= 
invars1m : enter jdtset= 0
 
 symlatt: the Bravais lattice is oP (primitive orthorhombic)
  xred   is defined in input file
 ingeo: takes atomic coordinates from input array xred
 
 symlatt: the Bravais lattice is oP (primitive orthorhombic)
 
 symlatt: the Bravais lattice is oP (primitive orthorhombic)
 symspgr: spgroup=  62  Pn m a   (=D2h^16)
 
--- !WARNING
src_file: m_mpinfo.F90
src_line: 2286
message: |
    nproc_kpt= 2 >= nkpt= 1* nsppol= 1
    The number of processors is larger than nkpt*nsppol. This is a waste. (Ignore this warning if this is not a GS run)
...
 
 
--- !WARNING
src_file: m_mpi_setup.F90
src_line: 704
message: |
    Your number of spins*k-points (=1) will not distribute correctly
    with the current number of processors (=2).
    You will leave some empty.
    YOU ARE STRONGLY ADVICED TO ACTIVATE AUTOMATIC PARALLELIZATION!
    PUT "AUTOPARAL=1" IN THE INPUT FILE.
...
 
 For input ecut=  3.000000E+01 best grid ngfft=      30      30      40
       max ecut=  3.331860E+01
 
 ==== FFT mesh ====
  FFT mesh divisions ........................    30   30   40
  Augmented FFT divisions ...................    31   31   40
  FFT algorithm .............................   512
  FFT cache size ............................    16
 getmpw: optimal value of mpw= 1801
 
 Symmetries : space group Pn m a (# 62); Bravais oP (primitive ortho.)
 
 getdim_nloc : deduce lmnmax  =  18, lnmax  =   6,
                      lmnmaxso=  18, lnmaxso=   6.
memory: analysis of memory needs
================================================================================
 Values of the parameters that define the memory need of the present run
     intxc =       0    ionmov =       0      iscf =       7    lmnmax =       6
     lnmax =       6     mgfft =      40  mpssoang =       3    mqgrid =    3001
     natom =      20  nloc_mem =       1    nspden =       1   nspinor =       1
    nsppol =       1      nsym =       8    n1xccc =    2501    ntypat =       3
    occopt =       1   xclevel =       2
-    mband =          90        mffmem =           1         mkmem =           1
       mpw =        1801          nfft =       36000          nkpt =           1
================================================================================
P This job should need less than                      15.839 Mbytes of memory.
  Rough estimation (10% accuracy) of disk space for files :
_ WF disk file :      2.475 Mbytes ; DEN or POT disk file :      0.277 Mbytes.
================================================================================
 
 Biggest array : f_fftgr(disk), with      4.3965 MBytes.
 memana : allocated an array of      4.397 Mbytes, for testing purposes.
 memana: allocated      15.839Mbytes, for testing purposes. 
 The job will continue.
--------------------------------------------------------------------------------
------------- Echo of variables that govern the present computation ------------
--------------------------------------------------------------------------------
-
- outvars: echo of selected default values                                      
-   iomode0 =  0 , fftalg0 =512 , wfoptalg0 =  0
-
- outvars: echo of global parameters not present in the input file              
-  max_nthreads =    0
-
 -outvars: echo values of preprocessed input variables --------
 
 These variables are accessible in NetCDF format (spo_OUT.nc)

            acell      5.4040000000E+00  5.5130000000E+00  7.6970000000E+00 Bohr
              amu      4.00780000E+01  4.78800000E+01  1.59994000E+01
             ecut      3.00000000E+01 Hartree
-          fftalg         512
              ixc          11
              kpt      2.50000000E-01  2.50000000E-01  2.50000000E-01
         kptrlatt        2    0    0      0    2    0      0    0    2
          kptrlen      1.08080000E+01
P           mkmem           1
            natom          20
            nband          90
            ngfft          30      30      40
             nkpt           1
             nsym           8
           ntypat           3
              occ      2.000000  2.000000  2.000000  2.000000  2.000000  2.000000
                       2.000000  2.000000  2.000000  2.000000  2.000000  2.000000
                       2.000000  2.000000  2.000000  2.000000  2.000000  2.000000
                       2.000000  2.000000  2.000000  2.000000  2.000000  2.000000
                       2.000000  2.000000  2.000000  2.000000  2.000000  2.000000
                       2.000000  2.000000  2.000000  2.000000  2.000000  2.000000
                       2.000000  2.000000  2.000000  2.000000  2.000000  2.000000
                       2.000000  2.000000  2.000000  2.000000  2.000000  2.000000
                       2.000000  2.000000  2.000000  2.000000  2.000000  2.000000
                       2.000000  2.000000  2.000000  2.000000  2.000000  2.000000
                       2.000000  2.000000  2.000000  2.000000  2.000000  2.000000
                       2.000000  2.000000  2.000000  2.000000  2.000000  2.000000
                       2.000000  2.000000  2.000000  2.000000  2.000000  2.000000
                       2.000000  2.000000  0.000000  0.000000  0.000000  0.000000
                       0.000000  0.000000  0.000000  0.000000  0.000000  0.000000
           shiftk      5.00000000E-01  5.00000000E-01  5.00000000E-01
          spgroup          62
           symrel      1  0  0   0  1  0   0  0  1      -1  0  0   0 -1  0   0  0 -1
                      -1  0  0   0  1  0   0  0 -1       1  0  0   0 -1  0   0  0  1
                      -1  0  0   0 -1  0   0  0  1       1  0  0   0  1  0   0  0 -1
                       1  0  0   0 -1  0   0  0 -1      -1  0  0   0  1  0   0  0  1
            tnons      0.0000000  0.0000000  0.0000000     0.0000000  0.0000000  0.0000000
                       0.5000000  0.5000000  0.5000000     0.5000000  0.5000000  0.5000000
                       0.0000000  0.0000000  0.5000000     0.0000000  0.0000000  0.5000000
                       0.5000000  0.5000000  0.0000000     0.5000000  0.5000000  0.0000000
           toldfe      1.00000000E-10 Hartree
            typat      1  1  1  1  2  2  2  2  3  3  3  3  3  3  3  3  3  3  3  3
           xangst      2.4307225899E-02  2.7866564940E+00  3.0548077309E+00
                       1.4055295917E+00  1.3279795185E+00  3.0548077309E+00
                       1.4541440435E+00  1.5893744325E+00  1.0182692436E+00
                       2.8353664093E+00  1.3069745700E-01  1.0182692436E+00
                       0.0000000000E+00  1.4586769755E+00  0.0000000000E+00
                       0.0000000000E+00  1.4586769755E+00  2.0365384873E+00
                       1.4298368176E+00  0.0000000000E+00  0.0000000000E+00
                       1.4298368176E+00  0.0000000000E+00  2.0365384873E+00
                       2.2334051091E-01  1.3985794841E+00  1.0182692436E+00
                       5.9338227931E-01  6.0710135719E-01  2.2023127201E+00
                       5.9338227931E-01  6.0710135719E-01  3.9073027417E+00
                       8.3645453830E-01  2.0657783327E+00  3.9073027417E+00
                       8.3645453830E-01  2.0657783327E+00  2.2023127201E+00
                       1.2064963067E+00  2.8572564596E+00  1.0182692436E+00
                       1.6531773285E+00  6.0097491390E-02  3.0548077309E+00
                       2.0232190969E+00  8.5157561828E-01  1.8707642544E+00
                       2.0232190969E+00  8.5157561828E-01  1.6577423286E-01
                       2.2662913559E+00  2.3102525938E+00  1.6577423286E-01
                       2.2662913559E+00  2.3102525938E+00  1.8707642544E+00
                       2.6363331243E+00  1.5187744669E+00  3.0548077309E+00
            xcart      4.5934000000E-02  5.2660176000E+00  5.7727500000E+00
                       2.6560660000E+00  2.5095176000E+00  5.7727500000E+00
                       2.7479340000E+00  3.0034824000E+00  1.9242500000E+00
                       5.3580660000E+00  2.4698240000E-01  1.9242500000E+00
                       0.0000000000E+00  2.7565000000E+00  0.0000000000E+00
                       0.0000000000E+00  2.7565000000E+00  3.8485000000E+00
                       2.7020000000E+00  0.0000000000E+00  0.0000000000E+00
                       2.7020000000E+00  0.0000000000E+00  3.8485000000E+00
                       4.2205240000E-01  2.6429322000E+00  1.9242500000E+00
                       1.1213300000E+00  1.1472553000E+00  4.1617679000E+00
                       1.1213300000E+00  1.1472553000E+00  7.3837321000E+00
                       1.5806700000E+00  3.9037553000E+00  7.3837321000E+00
                       1.5806700000E+00  3.9037553000E+00  4.1617679000E+00
                       2.2799476000E+00  5.3994322000E+00  1.9242500000E+00
                       3.1240524000E+00  1.1356780000E-01  5.7727500000E+00
                       3.8233300000E+00  1.6092447000E+00  3.5352321000E+00
                       3.8233300000E+00  1.6092447000E+00  3.1326790000E-01
                       4.2826700000E+00  4.3657447000E+00  3.1326790000E-01
                       4.2826700000E+00  4.3657447000E+00  3.5352321000E+00
                       4.9819476000E+00  2.8700678000E+00  5.7727500000E+00
             xred      8.5000000000E-03  9.5520000000E-01  7.5000000000E-01
                       4.9150000000E-01  4.5520000000E-01  7.5000000000E-01
                       5.0850000000E-01  5.4480000000E-01  2.5000000000E-01
                       9.9150000000E-01  4.4800000000E-02  2.5000000000E-01
                       0.0000000000E+00  5.0000000000E-01  0.0000000000E+00
                       0.0000000000E+00  5.0000000000E-01  5.0000000000E-01
                       5.0000000000E-01  0.0000000000E+00  0.0000000000E+00
                       5.0000000000E-01  0.0000000000E+00  5.0000000000E-01
                       7.8100000000E-02  4.7940000000E-01  2.5000000000E-01
                       2.0750000000E-01  2.0810000000E-01  5.4070000000E-01
                       2.0750000000E-01  2.0810000000E-01  9.5930000000E-01
                       2.9250000000E-01  7.0810000000E-01  9.5930000000E-01
                       2.9250000000E-01  7.0810000000E-01  5.4070000000E-01
                       4.2190000000E-01  9.7940000000E-01  2.5000000000E-01
                       5.7810000000E-01  2.0600000000E-02  7.5000000000E-01
                       7.0750000000E-01  2.9190000000E-01  4.5930000000E-01
                       7.0750000000E-01  2.9190000000E-01  4.0700000000E-02
                       7.9250000000E-01  7.9190000000E-01  4.0700000000E-02
                       7.9250000000E-01  7.9190000000E-01  4.5930000000E-01
                       9.2190000000E-01  5.2060000000E-01  7.5000000000E-01
            znucl       20.00000   22.00000    8.00000
 
================================================================================
 
 chkinp: Checking input parameters for consistency.
 DATA TYPE INFORMATION: 
 REAL:      Data type name: REAL(DP) 
            Kind value:      8
            Precision:      15
            Smallest nonnegligible quantity relative to 1:  0.22204460E-15
            Smallest positive number:                       0.22250739-307
            Largest representable number:                   0.17976931+309
 INTEGER:   Data type name: INTEGER(default) 
            Kind value: 4
            Bit size:   32
            Largest representable number: 2147483647
 LOGICAL:   Data type name: LOGICAL 
            Kind value: 4
 CHARACTER: Data type name: CHARACTER             Kind value: 1

  ==== OpenMP parallelism is OFF ====
 
  ==== Using MPI-2 specifications ==== 
  MPI-IO support is ON
  xmpi_tag_ub ................   2147483647
  xmpi_bsize_ch ..............            1
  xmpi_bsize_int .............            4
  xmpi_bsize_sp ..............            4
  xmpi_bsize_dp ..............            8
  xmpi_bsize_spc .............            8
  xmpi_bsize_dpc .............           16
  xmpio_bsize_frm ............            4
  xmpi_address_kind ..........            8
  xmpi_offset_kind ...........            8
  MPI_WTICK ..................   1.000000000000000E-006
 
================================================================================
== DATASET  1 ==================================================================
-   nproc =    2   -> not optimal: autoparal keyword recommended in input file
 
 
--- !COMMENT
src_file: m_xgScalapack.F90
src_line: 237
message: |
    xgScalapack in auto mode
...
 
 
 getdim_nloc : deduce lmnmax  =  18, lnmax  =   6,
                      lmnmaxso=  18, lnmaxso=   6.
 Exchange-correlation functional for the present dataset will be:
  GGA: Perdew-Burke-Ernzerhof functional - ixc=11
 Citation for XC functional:
  J.P.Perdew, K.Burke, M.Ernzerhof, PRL 77, 3865 (1996)
 
 Unit cell volume ucvol=  2.2931096E+02 bohr^3
 Angles (23,13,12)=  9.00000000E+01  9.00000000E+01  9.00000000E+01 degrees
 
 getcut: wavevector=  0.0000  0.0000  0.0000  ngfft=  30  30  40
         ecut(hartree)=     30.000   => boxcut(ratio)=   2.10772
- pspini: atom type   1  psp file is ../../PsP/Ca.psp8
- pspatm: opening atomic psp file    ../../PsP/Ca.psp8
- Ca    ONCVPSP-3.2.3.1  r_core=   1.45885   1.45885   1.85192
- 20.00000  10.00000    170504                znucl, zion, pspdat
    8   11    2    4       400   0.00000      pspcod,pspxc,lmax,lloc,mmax,r2well
    3.99000000000000    6.00000000000000    0.00000000000000   rchrg,fchrg,qchrg
     nproj     2     2     2
     extension_switch     1
  valence charge integrates to:    9.09063937994142     
  pspatm : epsatm=   12.33414111
         --- l  ekb(1:nproj) -->
             0   10.063789    0.972391
             1    3.049878    0.471799
             2   -3.406671   -1.078890
 pspatm: atomic psp has been read  and splines computed
 
- pspini: atom type   2  psp file is ../../PsP/Ti.psp8
- pspatm: opening atomic psp file    ../../PsP/Ti.psp8
- Ti    ONCVPSP-3.2.3.1  r_core=   1.35825   1.31050   1.66360
- 22.00000  12.00000    170504                znucl, zion, pspdat
    8   11    2    4       600   0.00000      pspcod,pspxc,lmax,lloc,mmax,r2well
    5.99000000000000    2.50000000000000    0.00000000000000   rchrg,fchrg,qchrg
     nproj     2     2     2
     extension_switch     1
  valence charge integrates to:    11.8891845495734     
  pspatm : epsatm=   14.68144390
         --- l  ekb(1:nproj) -->
             0   11.362348    1.263639
             1    1.975402   -0.084666
             2   -5.186090   -1.477451
 pspatm: atomic psp has been read  and splines computed
 
- pspini: atom type   3  psp file is ../../PsP/O.psp8
- pspatm: opening atomic psp file    ../../PsP/O.psp8
- O     ONCVPSP-3.2.3.1  r_core=   1.35509   1.45563   1.26150
-  8.00000   6.00000    170504                znucl, zion, pspdat
    8   11    2    4       600   0.00000      pspcod,pspxc,lmax,lloc,mmax,r2well
    5.99000000000000    4.00000000000000    0.00000000000000   rchrg,fchrg,qchrg
     nproj     2     2     1
     extension_switch     1
  valence charge integrates to:    5.99903187524054     
  pspatm : epsatm=    6.19546011
         --- l  ekb(1:nproj) -->
             0    6.056735    0.824024
             1   -4.717130   -1.149271
             2   -1.331955
 pspatm: atomic psp has been read  and splines computed
 
   2.91852578E+04                                ecore*ucvol(ha*bohr**3)
 ==== Info on pseudopotentials ====
  Norm-conserving pseudopotentials
  Number of pseudopotentials ..    3
  Number of types of atoms   ..    3
  Scalar calculation (no spin-orbit term)
  Nonlocal part applied using Legendre polynomials
  Max number of non-local projectors over l and type   2
  Highest angular momentum +1 .......   3
  Max number of (l,n)   components ..   6
  Max number of (l,m,n) components ..   6
 
 Pseudo-Core Charge Info: 
   Number of radial points for pseudo-core charge .. 2501
   XC core-correction treatment (optnlxccc) ........    1
   Radius for pseudo-core charge for each type ..... 
 
  - Atom type    1 has pseudo-core radius ..  3.9900
  - Atom type    2 has pseudo-core radius ..  5.9900
  - Atom type    3 has pseudo-core radius ..  5.9900
 
 Info on the Q-grid used for form factors in spline form: 
   Number of q-points for radial functions ffspl ..   3001
   Number of q-points for vlspl ...................   3001
   vloc is computed in Reciprocal Space
   model core charge treated in real-space
 
  XC functional for type 1 is 11
  Pseudo valence available: yes
  XC functional for type 2 is 11
  Pseudo valence available: yes
  XC functional for type 3 is 11
  Pseudo valence available: yes
 
 wfconv:    90 bands initialized randomly with npw=  1801, for ikpt=     1
_setup2: Arith. and geom. avg. npw (full set) are    1801.000    1801.000
 initro: for itypat=  1, take pseudo charge density from pp file
 initro: for itypat=  2, take pseudo charge density from pp file
 initro: for itypat=  3, take pseudo charge density from pp file
 
================================================================================
 
 getcut: wavevector=  0.0000  0.0000  0.0000  ngfft=  30  30  40
         ecut(hartree)=     30.000   => boxcut(ratio)=   2.10772
 
 ITER STEP NUMBER     1
 vtorho: nnsclo_now=2, note that nnsclo,dbl_nnsclo,istep=0 0 1
 Total charge density [el/Bohr^3]
      Maximum=    1.8796E+00  at reduced coord.    0.0000    0.6000    0.9500
      Minimum=    7.0051E-02  at reduced coord.    0.0000    0.0333    0.2500
   Integrated=    1.6000E+02
 ETOT  1  -536.91926456537    -5.369E+02 1.719E-01 9.628E+02
 scprqt: <Vxc>= -9.3344930E-01 hartree
 
 Simple mixing update:
  residual square of the potential:    606.358450758917
 scfcv_core: previous iteration took  3.00 [s]
 
 ITER STEP NUMBER     2
 vtorho: nnsclo_now=2, note that nnsclo,dbl_nnsclo,istep=0 0 2
 Total charge density [el/Bohr^3]
      Maximum=    1.6635E+00  at reduced coord.    0.9667    0.5667    0.9250
      Minimum=    7.1502E-02  at reduced coord.    0.0000    0.0333    0.2500
   Integrated=    1.6000E+02
 ETOT  2  -537.45296884433    -5.337E-01 1.911E-02 9.887E+02
 scprqt: <Vxc>= -9.4048742E-01 hartree
 
 Pulay update with  1 previous iterations:
 mixing of old trial potential: alpha(m:m-4)=  0.509      0.491
 scfcv_core: previous iteration took  2.76 [s]
 
 ITER STEP NUMBER     3
 vtorho: nnsclo_now=1, note that nnsclo,dbl_nnsclo,istep=0 0 3
 Total charge density [el/Bohr^3]
      Maximum=    1.8211E+00  at reduced coord.    0.0000    0.6000    0.9500
      Minimum=    6.8329E-02  at reduced coord.    0.0000    0.0333    0.2500
   Integrated=    1.6000E+02
 ETOT  3  -537.92292707777    -4.700E-01 2.249E-02 4.986E+01
 scprqt: <Vxc>= -9.3868688E-01 hartree
 
 Pulay update with  2 previous iterations:
 mixing of old trial potential: alpha(m:m-4)=  0.630      0.241      0.129
 scfcv_core: previous iteration took  1.40 [s]
 
 ITER STEP NUMBER     4
 vtorho: nnsclo_now=1, note that nnsclo,dbl_nnsclo,istep=0 0 4
 Total charge density [el/Bohr^3]
      Maximum=    1.7841E+00  at reduced coord.    0.0000    0.6000    0.9500
      Minimum=    6.8944E-02  at reduced coord.    0.0000    0.0333    0.2500
   Integrated=    1.6000E+02
 ETOT  4  -537.95268863489    -2.976E-02 4.481E-03 7.666E-01
 scprqt: <Vxc>= -9.3867829E-01 hartree
 
 Pulay update with  3 previous iterations:
 mixing of old trial potential: alpha(m:m-4)=  0.635      0.226      0.945E-01  0.454E-01
 scfcv_core: previous iteration took  1.40 [s]
 
 ITER STEP NUMBER     5
 vtorho: nnsclo_now=1, note that nnsclo,dbl_nnsclo,istep=0 0 5
 Total charge density [el/Bohr^3]
      Maximum=    1.7872E+00  at reduced coord.    0.0000    0.6000    0.9500
      Minimum=    6.9095E-02  at reduced coord.    0.0000    0.0333    0.2500
   Integrated=    1.6000E+02
 ETOT  5  -537.95322883941    -5.402E-04 3.490E-03 7.948E-02
 scprqt: <Vxc>= -9.3864222E-01 hartree
 
 Pulay update with  4 previous iterations:
 mixing of old trial potential: alpha(m:m-4)=  0.968      0.289E-01 -0.797E-02  0.897E-02  0.227E-02
 scfcv_core: previous iteration took  1.40 [s]
 
 ITER STEP NUMBER     6
 vtorho: nnsclo_now=1, note that nnsclo,dbl_nnsclo,istep=0 0 6
 Total charge density [el/Bohr^3]
      Maximum=    1.7857E+00  at reduced coord.    0.0000    0.6000    0.9500
      Minimum=    6.9126E-02  at reduced coord.    0.0000    0.0333    0.2500
   Integrated=    1.6000E+02
 ETOT  6  -537.95328476676    -5.593E-05 1.145E-03 3.193E-03
 scprqt: <Vxc>= -9.3864766E-01 hartree
 
 Pulay update with  5 previous iterations:
 mixing of old trial potential: alpha(m:m-4)=  0.603      0.419     -0.135E-01 -0.914E-02  0.110E-02
 scfcv_core: previous iteration took  1.41 [s]
 
 ITER STEP NUMBER     7
 vtorho: nnsclo_now=1, note that nnsclo,dbl_nnsclo,istep=0 0 7
 Total charge density [el/Bohr^3]
      Maximum=    1.7858E+00  at reduced coord.    0.0000    0.6000    0.9500
      Minimum=    6.9125E-02  at reduced coord.    0.0000    0.0333    0.2500
   Integrated=    1.6000E+02
 ETOT  7  -537.95328842605    -3.659E-06 3.454E-03 7.219E-05
 scprqt: <Vxc>= -9.3864772E-01 hartree
 
 Pulay update with  6 previous iterations:
 mixing of old trial potential: alpha(m:m-4)=  0.770      0.159      0.758E-01 -0.277E-02 -0.179E-02
 scfcv_core: previous iteration took  1.41 [s]
 
 ITER STEP NUMBER     8
 vtorho: nnsclo_now=1, note that nnsclo,dbl_nnsclo,istep=0 0 8
 Total charge density [el/Bohr^3]
      Maximum=    1.7858E+00  at reduced coord.    0.0000    0.6000    0.9500
      Minimum=    6.9125E-02  at reduced coord.    0.0000    0.0333    0.2500
   Integrated=    1.6000E+02
 ETOT  8  -537.95328880147    -3.754E-07 1.655E-03 1.610E-05
 scprqt: <Vxc>= -9.3864759E-01 hartree
 
 Pulay update with  7 previous iterations:
 mixing of old trial potential: alpha(m:m-4)=  0.861      0.140     -0.418E-02  0.316E-02  0.917E-04
 scfcv_core: previous iteration took  1.41 [s]
 
 ITER STEP NUMBER     9
 vtorho: nnsclo_now=1, note that nnsclo,dbl_nnsclo,istep=0 0 9
 Total charge density [el/Bohr^3]
      Maximum=    1.7858E+00  at reduced coord.    0.0000    0.6000    0.9500
      Minimum=    6.9124E-02  at reduced coord.    0.0000    0.0333    0.2500
   Integrated=    1.6000E+02
 ETOT  9  -537.95328886897    -6.749E-08 4.575E-03 3.898E-07
 scprqt: <Vxc>= -9.3864753E-01 hartree
 
 Pulay update with  7 previous iterations:
 mixing of old trial potential: alpha(m:m-4)=  0.806      0.205     -0.508E-02 -0.418E-02 -0.239E-02
 scfcv_core: previous iteration took  1.40 [s]
 
 ITER STEP NUMBER    10
 vtorho: nnsclo_now=1, note that nnsclo,dbl_nnsclo,istep=0 0 10
 Total charge density [el/Bohr^3]
      Maximum=    1.7858E+00  at reduced coord.    0.0000    0.6000    0.9500
      Minimum=    6.9124E-02  at reduced coord.    0.0000    0.0333    0.2500
   Integrated=    1.6000E+02
 ETOT 10  -537.95328887907    -1.011E-08 1.816E-03 9.438E-09
 scprqt: <Vxc>= -9.3864753E-01 hartree
 
 Pulay update with  7 previous iterations:
 mixing of old trial potential: alpha(m:m-4)=  0.793      0.227     -0.453E-02 -0.128E-01 -0.189E-02
 scfcv_core: previous iteration took  1.40 [s]
 
 ITER STEP NUMBER    11
 vtorho: nnsclo_now=1, note that nnsclo,dbl_nnsclo,istep=0 0 11
 Total charge density [el/Bohr^3]
      Maximum=    1.7858E+00  at reduced coord.    0.0000    0.6000    0.9500
      Minimum=    6.9124E-02  at reduced coord.    0.0000    0.0333    0.2500
   Integrated=    1.6000E+02
 ETOT 11  -537.95328888070    -1.623E-09 4.285E-03 1.343E-08
 scprqt: <Vxc>= -9.3864753E-01 hartree
 
 Pulay update with  7 previous iterations:
 mixing of old trial potential: alpha(m:m-4)=  0.746      0.254      0.124E-01 -0.761E-02 -0.348E-02
 scfcv_core: previous iteration took  1.40 [s]
 
 ITER STEP NUMBER    12
 vtorho: nnsclo_now=1, note that nnsclo,dbl_nnsclo,istep=0 0 12
 Total charge density [el/Bohr^3]
      Maximum=    1.7858E+00  at reduced coord.    0.0000    0.6000    0.9500
      Minimum=    6.9124E-02  at reduced coord.    0.0000    0.0333    0.2500
   Integrated=    1.6000E+02
 ETOT 12  -537.95328888097    -2.693E-10 1.321E-03 1.493E-10
 scprqt: <Vxc>= -9.3864753E-01 hartree
 
 Pulay update with  7 previous iterations:
 mixing of old trial potential: alpha(m:m-4)=   1.04      0.543E-01 -0.700E-01 -0.234E-01  0.455E-04
 scfcv_core: previous iteration took  1.40 [s]
 
 ITER STEP NUMBER    13
 vtorho: nnsclo_now=1, note that nnsclo,dbl_nnsclo,istep=0 0 13
 Total charge density [el/Bohr^3]
      Maximum=    1.7858E+00  at reduced coord.    0.0000    0.6000    0.9500
      Minimum=    6.9124E-02  at reduced coord.    0.0000    0.0333    0.2500
   Integrated=    1.6000E+02
 ETOT 13  -537.95328888101    -3.922E-11 2.770E-03 1.179E-10
 scprqt: <Vxc>= -9.3864753E-01 hartree
 
 Pulay update with  7 previous iterations:
 mixing of old trial potential: alpha(m:m-4)=  0.801      0.262     -0.550E-01 -0.594E-02 -0.222E-02
 scfcv_core: previous iteration took  1.41 [s]
 
 ITER STEP NUMBER    14
 vtorho: nnsclo_now=1, note that nnsclo,dbl_nnsclo,istep=0 0 14
 Total charge density [el/Bohr^3]
      Maximum=    1.7858E+00  at reduced coord.    0.0000    0.6000    0.9500
      Minimum=    6.9124E-02  at reduced coord.    0.0000    0.0333    0.2500
   Integrated=    1.6000E+02
 ETOT 14  -537.95328888101    -7.162E-12 7.093E-04 1.181E-12
 scprqt: <Vxc>= -9.3864753E-01 hartree
 
 At SCF step   14, etot is converged : 
  for the second time, diff in etot=  7.162E-12 < toldfe=  1.000E-10
 
 Cartesian components of stress tensor (hartree/bohr^3)
  sigma(1 1)= -3.37154504E-01  sigma(3 2)=  0.00000000E+00
  sigma(2 2)= -3.29732933E-01  sigma(3 1)=  0.00000000E+00
  sigma(3 3)= -3.44591194E-01  sigma(2 1)=  0.00000000E+00
 
 
   fftdatar_write: About to write data to: spo_DEN with iomode: IO_MODE_FORTRAN
 IO operation completed. cpu:  0.00 [s] , wall:  0.11 [s]
- Creating HDf5 file with MPI-IO support: spo_GSR.nc
================================================================================
 
 ----iterations are completed or convergence reached----
 
 
 === Gap info ===
  >>>> For spin  1
   Minimum direct gap =   0.7485 [eV], located at k-point      :   0.2500  0.2500  0.2500
   Fundamental gap    =   0.7485 [eV], Top of valence bands at :   0.2500  0.2500  0.2500
                                       Bottom of conduction at :   0.2500  0.2500  0.2500
 Mean square residual over all n,k,spin=   10.221E-06; max=  70.926E-05
   0.2500  0.2500  0.2500    1  7.09261E-04 kpt; spin; max resid(k); each band:
  9.14E-17 7.64E-17 7.15E-17 5.79E-17 7.29E-17 7.08E-17 9.07E-17 8.06E-17
  7.02E-17 5.66E-17 7.16E-17 8.56E-17 4.71E-17 5.33E-17 5.84E-17 6.80E-17
  7.98E-17 1.02E-16 9.44E-17 7.98E-17 1.13E-16 8.81E-17 1.00E-16 4.63E-17
  5.56E-17 7.45E-17 8.26E-17 6.29E-17 6.37E-17 6.74E-17 6.83E-17 6.14E-17
  5.02E-17 3.22E-17 5.60E-17 7.60E-17 5.92E-17 7.45E-17 6.83E-17 7.56E-17
  8.54E-17 7.52E-17 6.41E-17 6.13E-17 6.06E-17 5.14E-17 4.93E-17 7.94E-17
  6.60E-17 6.34E-17 7.51E-17 8.14E-17 5.83E-17 5.69E-17 8.00E-17 8.57E-17
  6.31E-17 7.55E-17 7.16E-17 9.09E-17 6.30E-17 6.46E-17 9.83E-17 7.89E-17
  6.52E-17 8.11E-17 8.04E-17 9.52E-17 8.57E-17 9.19E-17 7.88E-17 1.01E-16
  1.35E-16 2.43E-16 4.45E-16 6.87E-16 4.42E-16 3.14E-15 1.50E-14 8.36E-13
  3.27E-12 2.06E-10 9.76E-11 4.62E-09 3.03E-08 3.96E-08 2.99E-06 1.07E-06
  2.06E-04 7.09E-04
 
   outwf: writing wavefunctions to: spo_WFK with iomode: IO_MODE_FORTRAN_MASTER
 WFK output completed. cpu:  0.00 [s] , wall: 24.09 [s]
 prteigrs : about to open file spo_EIG
 Fermi (or HOMO) energy (hartree) =   2.38696   Average Vxc (hartree)=  -0.93865
 Eigenvalues (hartree) for nkpt=   1  k points:
 kpt#   1, nband= 90, wtk=  1.00000, kpt=  0.2500  0.2500  0.2500 (reduced coord)
  -0.81239   -0.74974   -0.72817   -0.68318   -0.28555   -0.26992   -0.17804   -0.17508
  -0.12259   -0.09611   -0.05602   -0.01997    0.00283    0.05561    0.06345    0.10841
   0.20616    0.32650    0.34071    0.46450    0.48412    0.52075    0.58911    0.63883
   0.67475    0.68329    0.71153    0.75975    0.78401    0.80583    0.82468    0.84713
   0.84816    0.88918    0.93011    0.96089    0.98583    1.01632    1.04390    1.05820
   1.13694    1.16329    1.19911    1.23219    1.25524    1.30947    1.34799    1.38313
   1.41358    1.45216    1.48191    1.53821    1.59772    1.61606    1.67549    1.69908
   1.72145    1.78804    1.79449    1.81079    1.81979    1.88381    1.90046    1.92151
   1.93444    1.99193    2.01084    2.07942    2.10900    2.15295    2.17586    2.20247
   2.21349    2.24131    2.25179    2.25899    2.27649    2.30842    2.35447    2.38696
   2.41447    2.44253    2.45393    2.48087    2.49297    2.50147    2.53773    2.56219
   2.58156    2.60065
 Total charge density [el/Bohr^3]
      Maximum=    1.7858E+00  at reduced coord.    0.0000    0.6000    0.9500
 Next maximum=    1.7858E+00  at reduced coord.    0.5000    0.1000    0.9500
      Minimum=    6.9124E-02  at reduced coord.    0.0000    0.0333    0.2500
 Next minimum=    6.9124E-02  at reduced coord.    0.5000    0.5333    0.2500
   Integrated=    1.6000E+02
 
 Cartesian components of stress tensor (hartree/bohr^3)
  sigma(1 1)= -3.37154504E-01  sigma(3 2)=  0.00000000E+00
  sigma(2 2)= -3.29732933E-01  sigma(3 1)=  0.00000000E+00
  sigma(3 3)= -3.44591194E-01  sigma(2 1)=  0.00000000E+00
 
-Cartesian components of stress tensor (GPa)         [Pressure=  9.9196E+03 GPa]
- sigma(1 1)= -9.91942631E+03  sigma(3 2)=  0.00000000E+00
- sigma(2 2)= -9.70107619E+03  sigma(3 1)=  0.00000000E+00
- sigma(3 3)= -1.01382212E+04  sigma(2 1)=  0.00000000E+00
 
== END DATASET(S) ==============================================================
================================================================================
  
 -outvars: echo values of variables after computation  --------
 
 These variables are accessible in NetCDF format (spo_OUT.nc)

            acell      5.4040000000E+00  5.5130000000E+00  7.6970000000E+00 Bohr
              amu      4.00780000E+01  4.78800000E+01  1.59994000E+01
             ecut      3.00000000E+01 Hartree
           etotal     -5.3795328888E+02
            fcart     -7.8150911642E-02  5.9914246793E-01 -3.4694469520E-19
                       7.8150911642E-02  5.9914246793E-01 -3.4694469520E-19
                      -7.8150911642E-02 -5.9914246793E-01 -3.4694469520E-19
                       7.8150911642E-02 -5.9914246793E-01 -3.4694469520E-19
                       1.3877787808E-18 -1.3877787808E-18 -3.4694469520E-19
                       1.3877787808E-18 -1.3877787808E-18 -3.4694469520E-19
                       1.3877787808E-18 -1.3877787808E-18 -3.4694469520E-19
                       1.3877787808E-18 -1.3877787808E-18 -3.4694469520E-19
                       1.8623160747E-01  2.1378808707E-01 -3.4694469520E-19
                      -1.6575120240E-01 -3.5194541716E-02  3.8634449993E-02
                      -1.6575120240E-01 -3.5194541716E-02 -3.8634449993E-02
                       1.6575120240E-01 -3.5194541716E-02 -3.8634449993E-02
                       1.6575120240E-01 -3.5194541716E-02  3.8634449993E-02
                      -1.8623160747E-01  2.1378808707E-01 -3.4694469520E-19
                       1.8623160747E-01 -2.1378808707E-01 -3.4694469520E-19
                      -1.6575120240E-01  3.5194541716E-02 -3.8634449993E-02
                      -1.6575120240E-01  3.5194541716E-02  3.8634449993E-02
                       1.6575120240E-01  3.5194541716E-02  3.8634449993E-02
                       1.6575120240E-01  3.5194541716E-02 -3.8634449993E-02
                      -1.8623160747E-01 -2.1378808707E-01 -3.4694469520E-19
-          fftalg         512
              ixc          11
              kpt      2.50000000E-01  2.50000000E-01  2.50000000E-01
         kptrlatt        2    0    0      0    2    0      0    0    2
          kptrlen      1.08080000E+01
P           mkmem           1
            natom          20
            nband          90
            ngfft          30      30      40
             nkpt           1
             nsym           8
           ntypat           3
              occ      2.000000  2.000000  2.000000  2.000000  2.000000  2.000000
                       2.000000  2.000000  2.000000  2.000000  2.000000  2.000000
                       2.000000  2.000000  2.000000  2.000000  2.000000  2.000000
                       2.000000  2.000000  2.000000  2.000000  2.000000  2.000000
                       2.000000  2.000000  2.000000  2.000000  2.000000  2.000000
                       2.000000  2.000000  2.000000  2.000000  2.000000  2.000000
                       2.000000  2.000000  2.000000  2.000000  2.000000  2.000000
                       2.000000  2.000000  2.000000  2.000000  2.000000  2.000000
                       2.000000  2.000000  2.000000  2.000000  2.000000  2.000000
                       2.000000  2.000000  2.000000  2.000000  2.000000  2.000000
                       2.000000  2.000000  2.000000  2.000000  2.000000  2.000000
                       2.000000  2.000000  2.000000  2.000000  2.000000  2.000000
                       2.000000  2.000000  2.000000  2.000000  2.000000  2.000000
                       2.000000  2.000000  0.000000  0.000000  0.000000  0.000000
                       0.000000  0.000000  0.000000  0.000000  0.000000  0.000000
           shiftk      5.00000000E-01  5.00000000E-01  5.00000000E-01
          spgroup          62
           strten     -3.3715450427E-01 -3.2973293317E-01 -3.4459119389E-01
                       0.0000000000E+00  0.0000000000E+00  0.0000000000E+00
           symrel      1  0  0   0  1  0   0  0  1      -1  0  0   0 -1  0   0  0 -1
                      -1  0  0   0  1  0   0  0 -1       1  0  0   0 -1  0   0  0  1
                      -1  0  0   0 -1  0   0  0  1       1  0  0   0  1  0   0  0 -1
                       1  0  0   0 -1  0   0  0 -1      -1  0  0   0  1  0   0  0  1
            tnons      0.0000000  0.0000000  0.0000000     0.0000000  0.0000000  0.0000000
                       0.5000000  0.5000000  0.5000000     0.5000000  0.5000000  0.5000000
                       0.0000000  0.0000000  0.5000000     0.0000000  0.0000000  0.5000000
                       0.5000000  0.5000000  0.0000000     0.5000000  0.5000000  0.0000000
           toldfe      1.00000000E-10 Hartree
            typat      1  1  1  1  2  2  2  2  3  3  3  3  3  3  3  3  3  3  3  3
           xangst      2.4307225899E-02  2.7866564940E+00  3.0548077309E+00
                       1.4055295917E+00  1.3279795185E+00  3.0548077309E+00
                       1.4541440435E+00  1.5893744325E+00  1.0182692436E+00
                       2.8353664093E+00  1.3069745700E-01  1.0182692436E+00
                       0.0000000000E+00  1.4586769755E+00  0.0000000000E+00
                       0.0000000000E+00  1.4586769755E+00  2.0365384873E+00
                       1.4298368176E+00  0.0000000000E+00  0.0000000000E+00
                       1.4298368176E+00  0.0000000000E+00  2.0365384873E+00
                       2.2334051091E-01  1.3985794841E+00  1.0182692436E+00
                       5.9338227931E-01  6.0710135719E-01  2.2023127201E+00
                       5.9338227931E-01  6.0710135719E-01  3.9073027417E+00
                       8.3645453830E-01  2.0657783327E+00  3.9073027417E+00
                       8.3645453830E-01  2.0657783327E+00  2.2023127201E+00
                       1.2064963067E+00  2.8572564596E+00  1.0182692436E+00
                       1.6531773285E+00  6.0097491390E-02  3.0548077309E+00
                       2.0232190969E+00  8.5157561828E-01  1.8707642544E+00
                       2.0232190969E+00  8.5157561828E-01  1.6577423286E-01
                       2.2662913559E+00  2.3102525938E+00  1.6577423286E-01
                       2.2662913559E+00  2.3102525938E+00  1.8707642544E+00
                       2.6363331243E+00  1.5187744669E+00  3.0548077309E+00
            xcart      4.5934000000E-02  5.2660176000E+00  5.7727500000E+00
                       2.6560660000E+00  2.5095176000E+00  5.7727500000E+00
                       2.7479340000E+00  3.0034824000E+00  1.9242500000E+00
                       5.3580660000E+00  2.4698240000E-01  1.9242500000E+00
                       0.0000000000E+00  2.7565000000E+00  0.0000000000E+00
                       0.0000000000E+00  2.7565000000E+00  3.8485000000E+00
                       2.7020000000E+00  0.0000000000E+00  0.0000000000E+00
                       2.7020000000E+00  0.0000000000E+00  3.8485000000E+00
                       4.2205240000E-01  2.6429322000E+00  1.9242500000E+00
                       1.1213300000E+00  1.1472553000E+00  4.1617679000E+00
                       1.1213300000E+00  1.1472553000E+00  7.3837321000E+00
                       1.5806700000E+00  3.9037553000E+00  7.3837321000E+00
                       1.5806700000E+00  3.9037553000E+00  4.1617679000E+00
                       2.2799476000E+00  5.3994322000E+00  1.9242500000E+00
                       3.1240524000E+00  1.1356780000E-01  5.7727500000E+00
                       3.8233300000E+00  1.6092447000E+00  3.5352321000E+00
                       3.8233300000E+00  1.6092447000E+00  3.1326790000E-01
                       4.2826700000E+00  4.3657447000E+00  3.1326790000E-01
                       4.2826700000E+00  4.3657447000E+00  3.5352321000E+00
                       4.9819476000E+00  2.8700678000E+00  5.7727500000E+00
             xred      8.5000000000E-03  9.5520000000E-01  7.5000000000E-01
                       4.9150000000E-01  4.5520000000E-01  7.5000000000E-01
                       5.0850000000E-01  5.4480000000E-01  2.5000000000E-01
                       9.9150000000E-01  4.4800000000E-02  2.5000000000E-01
                       0.0000000000E+00  5.0000000000E-01  0.0000000000E+00
                       0.0000000000E+00  5.0000000000E-01  5.0000000000E-01
                       5.0000000000E-01  0.0000000000E+00  0.0000000000E+00
                       5.0000000000E-01  0.0000000000E+00  5.0000000000E-01
                       7.8100000000E-02  4.7940000000E-01  2.5000000000E-01
                       2.0750000000E-01  2.0810000000E-01  5.4070000000E-01
                       2.0750000000E-01  2.0810000000E-01  9.5930000000E-01
                       2.9250000000E-01  7.0810000000E-01  9.5930000000E-01
                       2.9250000000E-01  7.0810000000E-01  5.4070000000E-01
                       4.2190000000E-01  9.7940000000E-01  2.5000000000E-01
                       5.7810000000E-01  2.0600000000E-02  7.5000000000E-01
                       7.0750000000E-01  2.9190000000E-01  4.5930000000E-01
                       7.0750000000E-01  2.9190000000E-01  4.0700000000E-02
                       7.9250000000E-01  7.9190000000E-01  4.0700000000E-02
                       7.9250000000E-01  7.9190000000E-01  4.5930000000E-01
                       9.2190000000E-01  5.2060000000E-01  7.5000000000E-01
            znucl       20.00000   22.00000    8.00000
 
================================================================================
  

================================================================================

 Suggested references for the acknowledgment of ABINIT usage.

 The users of ABINIT have little formal obligations with respect to the ABINIT group
 (those specified in the GNU General Public License, http://www.gnu.org/copyleft/gpl.txt).
 However, it is common practice in the scientific literature,
 to acknowledge the efforts of people that have made the research possible.
 In this spirit, please find below suggested citations of work written by ABINIT developers,
 corresponding to implementations inside of ABINIT that you have used in the present run.
 Note also that it will be of great value to readers of publications presenting these results,
 to read papers enabling them to understand the theoretical formalism and details
 of the ABINIT implementation.
 For information on why they are suggested, see also https://docs.abinit.org/theory/acknowledgments.
-
- [1] Recent developments in the ABINIT software package.
- Computer Phys. Comm. 205, 106 (2016).
- X.Gonze, F.Jollet, F.Abreu Araujo, D.Adams, B.Amadon, T.Applencourt,
- C.Audouze, J.-M.Beuken, J.Bieder, A.Bokhanchuk, E.Bousquet, F.Bruneval
- D.Caliste, M.Cote, F.Dahm, F.Da Pieve, M.Delaveau, M.Di Gennaro,
- B.Dorado, C.Espejo, G.Geneste, L.Genovese, A.Gerossier, M.Giantomassi,
- Y.Gillet, D.R.Hamann, L.He, G.Jomard, J.Laflamme Janssen, S.Le Roux,
- A.Levitt, A.Lherbier, F.Liu, I.Lukacevic, A.Martin, C.Martins,
- M.J.T.Oliveira, S.Ponce, Y.Pouillon, T.Rangel, G.-M.Rignanese,
- A.H.Romero, B.Rousseau, O.Rubel, A.A.Shukri, M.Stankovski, M.Torrent,
- M.J.Van Setten, B.Van Troeye, M.J.Verstraete, D.Waroquier, J.Wiktor,
- B.Xu, A.Zhou, J.W.Zwanziger.
- Comment: the fourth generic paper describing the ABINIT project.
- Note that a version of this paper, that is not formatted for Computer Phys. Comm. 
- is available at https://www.abinit.org/about/ABINIT16.pdf .
- The licence allows the authors to put it on the Web.
- DOI and bibtex: see https://docs.abinit.org/theory/bibliography/#gonze2016
-
- [2] Optimized norm-conserving Vanderbilt pseudopotentials.
- D.R. Hamann, Phys. Rev. B 88, 085117 (2013).
- Comment: Some pseudopotential generated using the ONCVPSP code were used.
- DOI and bibtex: see https://docs.abinit.org/theory/bibliography/#hamann2013
-
- [3] ABINIT: First-principles approach of materials and nanosystem properties.
- Computer Phys. Comm. 180, 2582-2615 (2009).
- X. Gonze, B. Amadon, P.-M. Anglade, J.-M. Beuken, F. Bottin, P. Boulanger, F. Bruneval,
- D. Caliste, R. Caracas, M. Cote, T. Deutsch, L. Genovese, Ph. Ghosez, M. Giantomassi
- S. Goedecker, D.R. Hamann, P. Hermet, F. Jollet, G. Jomard, S. Leroux, M. Mancini, S. Mazevet,
- M.J.T. Oliveira, G. Onida, Y. Pouillon, T. Rangel, G.-M. Rignanese, D. Sangalli, R. Shaltaf,
- M. Torrent, M.J. Verstraete, G. Zerah, J.W. Zwanziger
- Comment: the third generic paper describing the ABINIT project.
- Note that a version of this paper, that is not formatted for Computer Phys. Comm. 
- is available at https://www.abinit.org/about/ABINIT_CPC_v10.pdf .
- The licence allows the authors to put it on the Web.
- DOI and bibtex: see https://docs.abinit.org/theory/bibliography/#gonze2009
-
- [4] A brief introduction to the ABINIT software package.
- Z. Kristallogr. 220, 558-562 (2005).
- X. Gonze, G.-M. Rignanese, M. Verstraete, J.-M. Beuken, Y. Pouillon, R. Caracas, F. Jollet,
- M. Torrent, G. Zerah, M. Mikami, Ph. Ghosez, M. Veithen, J.-Y. Raty, V. Olevano, F. Bruneval,
- L. Reining, R. Godby, G. Onida, D.R. Hamann, and D.C. Allan.
- Comment: the second generic paper describing the ABINIT project. Note that this paper
- should be cited especially if you are using the GW part of ABINIT, as several authors
- of this part are not in the list of authors of the first or third paper.
- The .pdf of the latter paper is available at https://www.abinit.org/about/zfk_0505-06_558-562.pdf.
- Note that it should not redistributed (Copyright by Oldenburg Wissenshaftverlag,
- the licence allows the authors to put it on the Web).
- DOI and bibtex: see https://docs.abinit.org/theory/bibliography/#gonze2005
-
- And optionally:
-
- [5] First-principles computation of material properties: the ABINIT software project. 
- X. Gonze, J.-M. Beuken, R. Caracas, F. Detraux, M. Fuchs, G.-M. Rignanese, L. Sindic,
- M. Verstraete, G. Zerah, F. Jollet, M. Torrent, A. Roy, M. Mikami, Ph. Ghosez, J.-Y. Raty, D.C. Allan.
- Computational Materials Science 25, 478-492 (2002). http://dx.doi.org/10.1016/S0927-0256(02)00325-7
- Comment: the original paper describing the ABINIT project.
- DOI and bibtex : see https://docs.abinit.org/theory/bibliography/#gonze2002
 Proc.   0 individual time (sec): cpu=         23.7  wall=         57.6
 
 Calculation completed.
.Delivered   0 WARNINGs and   0 COMMENTs to log file.

--- !FinalSummary
program: abinit
version: 8.11.13
start_datetime: Thu Dec 12 14:53:57 2019
end_datetime: Thu Dec 12 14:54:54 2019
overall_cpu_time:          81.1
overall_wall_time:         115.2
exit_requested_by_user: no 
timelimit: 0
pseudos: 
    Ca  : 465a3a044f2c7a72aff2b3fb3f797e8d
    Ti  : ea4ed3d71d7ed9998c7c8ddd5e23a4a6
    O   : abbcf0645b4a6d69360cd16bcad3e730
usepaw: 0
mpi_procs: 2
omp_threads: 1
num_warnings: 0
num_comments: 0
...
