
.Version 8.11.13 of ABINIT 
.(MPI version, prepared for a x86_64_linux_intel14.0 computer) 

.Copyright (C) 1998-2019 ABINIT group . 
 ABINIT comes with ABSOLUTELY NO WARRANTY.
 It is free software, and you are welcome to redistribute it
 under certain conditions (GNU General Public License,
 see ~abinit/COPYING or http://www.gnu.org/copyleft/gpl.txt).

 ABINIT is a project of the Universite Catholique de Louvain,
 Corning Inc. and other collaborators, see ~abinit/doc/developers/contributors.txt .
 Please read https://docs.abinit.org/theory/acknowledgments for suggested
 acknowledgments of the ABINIT effort.
 For more information, see https://www.abinit.org .

.Starting date : Thu 12 Dec 2019.
- ( at 14h15 )
  
- input  file    -> sp.in
- output file    -> sp.out
- root for input  files -> spi
- root for output files -> spo
 
 
 Symmetries : space group Pn m a (# 62); Bravais oP (primitive ortho.)
================================================================================
 Values of the parameters that define the memory need of the present run
     intxc =       0    ionmov =       0      iscf =       7    lmnmax =       6
     lnmax =       6     mgfft =      40  mpssoang =       3    mqgrid =    3001
     natom =      20  nloc_mem =       1    nspden =       1   nspinor =       1
    nsppol =       1      nsym =       8    n1xccc =    2501    ntypat =       3
    occopt =       1   xclevel =       2
-    mband =          90        mffmem =           1         mkmem =           1
       mpw =        1801          nfft =       36000          nkpt =           1
================================================================================
P This job should need less than                      15.839 Mbytes of memory.
  Rough estimation (10% accuracy) of disk space for files :
_ WF disk file :      2.475 Mbytes ; DEN or POT disk file :      0.277 Mbytes.
================================================================================
 
--------------------------------------------------------------------------------
------------- Echo of variables that govern the present computation ------------
--------------------------------------------------------------------------------
-
- outvars: echo of selected default values                                      
-   iomode0 =  0 , fftalg0 =312 , wfoptalg0 =  0
-
- outvars: echo of global parameters not present in the input file              
-  max_nthreads =    0
-
 -outvars: echo values of preprocessed input variables --------
            acell      5.4040000000E+00  5.5130000000E+00  7.6970000000E+00 Bohr
              amu      4.00780000E+01  4.78800000E+01  1.59994000E+01
             ecut      3.00000000E+01 Hartree
-          fftalg         312
              ixc          11
              kpt      2.50000000E-01  2.50000000E-01  2.50000000E-01
         kptrlatt        2    0    0      0    2    0      0    0    2
          kptrlen      1.08080000E+01
P           mkmem           1
            natom          20
            nband          90
            ngfft          30      30      40
             nkpt           1
             nsym           8
           ntypat           3
              occ      2.000000  2.000000  2.000000  2.000000  2.000000  2.000000
                       2.000000  2.000000  2.000000  2.000000  2.000000  2.000000
                       2.000000  2.000000  2.000000  2.000000  2.000000  2.000000
                       2.000000  2.000000  2.000000  2.000000  2.000000  2.000000
                       2.000000  2.000000  2.000000  2.000000  2.000000  2.000000
                       2.000000  2.000000  2.000000  2.000000  2.000000  2.000000
                       2.000000  2.000000  2.000000  2.000000  2.000000  2.000000
                       2.000000  2.000000  2.000000  2.000000  2.000000  2.000000
                       2.000000  2.000000  2.000000  2.000000  2.000000  2.000000
                       2.000000  2.000000  2.000000  2.000000  2.000000  2.000000
                       2.000000  2.000000  2.000000  2.000000  2.000000  2.000000
                       2.000000  2.000000  2.000000  2.000000  2.000000  2.000000
                       2.000000  2.000000  2.000000  2.000000  2.000000  2.000000
                       2.000000  2.000000  0.000000  0.000000  0.000000  0.000000
                       0.000000  0.000000  0.000000  0.000000  0.000000  0.000000
           shiftk      5.00000000E-01  5.00000000E-01  5.00000000E-01
          spgroup          62
           symrel      1  0  0   0  1  0   0  0  1      -1  0  0   0 -1  0   0  0 -1
                      -1  0  0   0  1  0   0  0 -1       1  0  0   0 -1  0   0  0  1
                      -1  0  0   0 -1  0   0  0  1       1  0  0   0  1  0   0  0 -1
                       1  0  0   0 -1  0   0  0 -1      -1  0  0   0  1  0   0  0  1
            tnons      0.0000000  0.0000000  0.0000000     0.0000000  0.0000000  0.0000000
                       0.5000000  0.5000000  0.5000000     0.5000000  0.5000000  0.5000000
                       0.0000000  0.0000000  0.5000000     0.0000000  0.0000000  0.5000000
                       0.5000000  0.5000000  0.0000000     0.5000000  0.5000000  0.0000000
           toldfe      1.00000000E-10 Hartree
            typat      1  1  1  1  2  2  2  2  3  3  3  3  3  3  3  3  3  3  3  3
           xangst      2.4307225899E-02  2.7866564940E+00  3.0548077309E+00
                       1.4055295917E+00  1.3279795185E+00  3.0548077309E+00
                       1.4541440435E+00  1.5893744325E+00  1.0182692436E+00
                       2.8353664093E+00  1.3069745700E-01  1.0182692436E+00
                       0.0000000000E+00  1.4586769755E+00  0.0000000000E+00
                       0.0000000000E+00  1.4586769755E+00  2.0365384873E+00
                       1.4298368176E+00  0.0000000000E+00  0.0000000000E+00
                       1.4298368176E+00  0.0000000000E+00  2.0365384873E+00
                       2.2334051091E-01  1.3985794841E+00  1.0182692436E+00
                       5.9338227931E-01  6.0710135719E-01  2.2023127201E+00
                       5.9338227931E-01  6.0710135719E-01  3.9073027417E+00
                       8.3645453830E-01  2.0657783327E+00  3.9073027417E+00
                       8.3645453830E-01  2.0657783327E+00  2.2023127201E+00
                       1.2064963067E+00  2.8572564596E+00  1.0182692436E+00
                       1.6531773285E+00  6.0097491390E-02  3.0548077309E+00
                       2.0232190969E+00  8.5157561828E-01  1.8707642544E+00
                       2.0232190969E+00  8.5157561828E-01  1.6577423286E-01
                       2.2662913559E+00  2.3102525938E+00  1.6577423286E-01
                       2.2662913559E+00  2.3102525938E+00  1.8707642544E+00
                       2.6363331243E+00  1.5187744669E+00  3.0548077309E+00
            xcart      4.5934000000E-02  5.2660176000E+00  5.7727500000E+00
                       2.6560660000E+00  2.5095176000E+00  5.7727500000E+00
                       2.7479340000E+00  3.0034824000E+00  1.9242500000E+00
                       5.3580660000E+00  2.4698240000E-01  1.9242500000E+00
                       0.0000000000E+00  2.7565000000E+00  0.0000000000E+00
                       0.0000000000E+00  2.7565000000E+00  3.8485000000E+00
                       2.7020000000E+00  0.0000000000E+00  0.0000000000E+00
                       2.7020000000E+00  0.0000000000E+00  3.8485000000E+00
                       4.2205240000E-01  2.6429322000E+00  1.9242500000E+00
                       1.1213300000E+00  1.1472553000E+00  4.1617679000E+00
                       1.1213300000E+00  1.1472553000E+00  7.3837321000E+00
                       1.5806700000E+00  3.9037553000E+00  7.3837321000E+00
                       1.5806700000E+00  3.9037553000E+00  4.1617679000E+00
                       2.2799476000E+00  5.3994322000E+00  1.9242500000E+00
                       3.1240524000E+00  1.1356780000E-01  5.7727500000E+00
                       3.8233300000E+00  1.6092447000E+00  3.5352321000E+00
                       3.8233300000E+00  1.6092447000E+00  3.1326790000E-01
                       4.2826700000E+00  4.3657447000E+00  3.1326790000E-01
                       4.2826700000E+00  4.3657447000E+00  3.5352321000E+00
                       4.9819476000E+00  2.8700678000E+00  5.7727500000E+00
             xred      8.5000000000E-03  9.5520000000E-01  7.5000000000E-01
                       4.9150000000E-01  4.5520000000E-01  7.5000000000E-01
                       5.0850000000E-01  5.4480000000E-01  2.5000000000E-01
                       9.9150000000E-01  4.4800000000E-02  2.5000000000E-01
                       0.0000000000E+00  5.0000000000E-01  0.0000000000E+00
                       0.0000000000E+00  5.0000000000E-01  5.0000000000E-01
                       5.0000000000E-01  0.0000000000E+00  0.0000000000E+00
                       5.0000000000E-01  0.0000000000E+00  5.0000000000E-01
                       7.8100000000E-02  4.7940000000E-01  2.5000000000E-01
                       2.0750000000E-01  2.0810000000E-01  5.4070000000E-01
                       2.0750000000E-01  2.0810000000E-01  9.5930000000E-01
                       2.9250000000E-01  7.0810000000E-01  9.5930000000E-01
                       2.9250000000E-01  7.0810000000E-01  5.4070000000E-01
                       4.2190000000E-01  9.7940000000E-01  2.5000000000E-01
                       5.7810000000E-01  2.0600000000E-02  7.5000000000E-01
                       7.0750000000E-01  2.9190000000E-01  4.5930000000E-01
                       7.0750000000E-01  2.9190000000E-01  4.0700000000E-02
                       7.9250000000E-01  7.9190000000E-01  4.0700000000E-02
                       7.9250000000E-01  7.9190000000E-01  4.5930000000E-01
                       9.2190000000E-01  5.2060000000E-01  7.5000000000E-01
            znucl       20.00000   22.00000    8.00000
 
================================================================================
 
 chkinp: Checking input parameters for consistency.
 
================================================================================
== DATASET  1 ==================================================================
-   nproc =    1
 
 Exchange-correlation functional for the present dataset will be:
  GGA: Perdew-Burke-Ernzerhof functional - ixc=11
 Citation for XC functional:
  J.P.Perdew, K.Burke, M.Ernzerhof, PRL 77, 3865 (1996)
 
 Real(R)+Recip(G) space primitive vectors, cartesian coordinates (Bohr,Bohr^-1):
 R(1)=  5.4040000  0.0000000  0.0000000  G(1)=  0.1850481  0.0000000  0.0000000
 R(2)=  0.0000000  5.5130000  0.0000000  G(2)=  0.0000000  0.1813894  0.0000000
 R(3)=  0.0000000  0.0000000  7.6970000  G(3)=  0.0000000  0.0000000  0.1299207
 Unit cell volume ucvol=  2.2931096E+02 bohr^3
 Angles (23,13,12)=  9.00000000E+01  9.00000000E+01  9.00000000E+01 degrees
 
 getcut: wavevector=  0.0000  0.0000  0.0000  ngfft=  30  30  40
         ecut(hartree)=     30.000   => boxcut(ratio)=   2.10772
 
--- Pseudopotential description ------------------------------------------------
- pspini: atom type   1  psp file is ../../PsP/Ca.psp8
- pspatm: opening atomic psp file    ../../PsP/Ca.psp8
- Ca    ONCVPSP-3.2.3.1  r_core=   1.45885   1.45885   1.85192
- 20.00000  10.00000    170504                znucl, zion, pspdat
    8   11    2    4       400   0.00000      pspcod,pspxc,lmax,lloc,mmax,r2well
    3.99000000000000    6.00000000000000    0.00000000000000   rchrg,fchrg,qchrg
     nproj     2     2     2
     extension_switch     1
  pspatm : epsatm=   12.33414111
         --- l  ekb(1:nproj) -->
             0   10.063789    0.972391
             1    3.049878    0.471799
             2   -3.406671   -1.078890
 pspatm: atomic psp has been read  and splines computed
 
- pspini: atom type   2  psp file is ../../PsP/Ti.psp8
- pspatm: opening atomic psp file    ../../PsP/Ti.psp8
- Ti    ONCVPSP-3.2.3.1  r_core=   1.35825   1.31050   1.66360
- 22.00000  12.00000    170504                znucl, zion, pspdat
    8   11    2    4       600   0.00000      pspcod,pspxc,lmax,lloc,mmax,r2well
    5.99000000000000    2.50000000000000    0.00000000000000   rchrg,fchrg,qchrg
     nproj     2     2     2
     extension_switch     1
  pspatm : epsatm=   14.68144390
         --- l  ekb(1:nproj) -->
             0   11.362348    1.263639
             1    1.975402   -0.084666
             2   -5.186090   -1.477451
 pspatm: atomic psp has been read  and splines computed
 
- pspini: atom type   3  psp file is ../../PsP/O.psp8
- pspatm: opening atomic psp file    ../../PsP/O.psp8
- O     ONCVPSP-3.2.3.1  r_core=   1.35509   1.45563   1.26150
-  8.00000   6.00000    170504                znucl, zion, pspdat
    8   11    2    4       600   0.00000      pspcod,pspxc,lmax,lloc,mmax,r2well
    5.99000000000000    4.00000000000000    0.00000000000000   rchrg,fchrg,qchrg
     nproj     2     2     1
     extension_switch     1
  pspatm : epsatm=    6.19546011
         --- l  ekb(1:nproj) -->
             0    6.056735    0.824024
             1   -4.717130   -1.149271
             2   -1.331955
 pspatm: atomic psp has been read  and splines computed
 
   2.91852578E+04                                ecore*ucvol(ha*bohr**3)
--------------------------------------------------------------------------------
 
_setup2: Arith. and geom. avg. npw (full set) are    1801.000    1801.000
 
================================================================================
 
     iter   Etot(hartree)      deltaE(h)  residm     vres2
 ETOT  1  -536.91926456537    -5.369E+02 1.719E-01 9.628E+02
 ETOT  2  -537.45296884433    -5.337E-01 1.911E-02 9.887E+02
 ETOT  3  -537.92292707777    -4.700E-01 2.249E-02 4.986E+01
 ETOT  4  -537.95268863489    -2.976E-02 4.481E-03 7.666E-01
 ETOT  5  -537.95322883941    -5.402E-04 3.490E-03 7.948E-02
 ETOT  6  -537.95328476676    -5.593E-05 1.145E-03 3.193E-03
 ETOT  7  -537.95328842605    -3.659E-06 3.454E-03 7.219E-05
 ETOT  8  -537.95328880147    -3.754E-07 1.655E-03 1.610E-05
 ETOT  9  -537.95328886897    -6.749E-08 4.575E-03 3.898E-07
 ETOT 10  -537.95328887908    -1.011E-08 1.816E-03 9.438E-09
 ETOT 11  -537.95328888070    -1.622E-09 4.285E-03 1.343E-08
 ETOT 12  -537.95328888097    -2.692E-10 1.321E-03 1.493E-10
 ETOT 13  -537.95328888101    -3.968E-11 2.770E-03 1.179E-10
 ETOT 14  -537.95328888101    -6.821E-12 7.093E-04 1.181E-12
 
 At SCF step   14, etot is converged : 
  for the second time, diff in etot=  6.821E-12 < toldfe=  1.000E-10
 
 Cartesian components of stress tensor (hartree/bohr^3)
  sigma(1 1)= -3.37154504E-01  sigma(3 2)=  0.00000000E+00
  sigma(2 2)= -3.29732933E-01  sigma(3 1)=  0.00000000E+00
  sigma(3 3)= -3.44591194E-01  sigma(2 1)=  0.00000000E+00
 
 Integrated electronic density in atomic spheres:
 ------------------------------------------------
 Atom  Sphere_radius  Integrated_density
    1        2.00000         18.35129543
    2        2.00000         18.35129543
    3        2.00000         18.35129543
    4        2.00000         18.35129543
    5        2.00000         26.45352011
    6        2.00000         26.45352011
    7        2.00000         26.45352011
    8        2.00000         26.45352011
    9        2.00000         22.48139690
   10        2.00000         22.38551711
   11        2.00000         22.38551711
   12        2.00000         22.38551711
   13        2.00000         22.38551711
   14        2.00000         22.48139690
   15        2.00000         22.48139690
   16        2.00000         22.38551711
   17        2.00000         22.38551711
   18        2.00000         22.38551711
   19        2.00000         22.38551711
   20        2.00000         22.48139690
================================================================================
 
 ----iterations are completed or convergence reached----
 
 Mean square residual over all n,k,spin=   10.221E-06; max=  70.926E-05
 reduced coordinates (array xred) for   20 atoms
       0.008500000000      0.955200000000      0.750000000000
       0.491500000000      0.455200000000      0.750000000000
       0.508500000000      0.544800000000      0.250000000000
       0.991500000000      0.044800000000      0.250000000000
       0.000000000000      0.500000000000      0.000000000000
       0.000000000000      0.500000000000      0.500000000000
       0.500000000000      0.000000000000      0.000000000000
       0.500000000000      0.000000000000      0.500000000000
       0.078100000000      0.479400000000      0.250000000000
       0.207500000000      0.208100000000      0.540700000000
       0.207500000000      0.208100000000      0.959300000000
       0.292500000000      0.708100000000      0.959300000000
       0.292500000000      0.708100000000      0.540700000000
       0.421900000000      0.979400000000      0.250000000000
       0.578100000000      0.020600000000      0.750000000000
       0.707500000000      0.291900000000      0.459300000000
       0.707500000000      0.291900000000      0.040700000000
       0.792500000000      0.791900000000      0.040700000000
       0.792500000000      0.791900000000      0.459300000000
       0.921900000000      0.520600000000      0.750000000000
 rms dE/dt=  1.0115E+00; max dE/dt=  3.3031E+00; dE/dt below (all hartree)
    1       0.422327526514     -3.303072425722      0.000000000000
    2      -0.422327526514     -3.303072425722      0.000000000000
    3       0.422327526514      3.303072425722      0.000000000000
    4      -0.422327526514      3.303072425722      0.000000000000
    5       0.000000000000      0.000000000000      0.000000000000
    6       0.000000000000      0.000000000000      0.000000000000
    7       0.000000000000      0.000000000000      0.000000000000
    8       0.000000000000      0.000000000000      0.000000000000
    9      -1.006395606793     -1.178613724030      0.000000000000
   10       0.895719497749      0.194027508481     -0.297369361599
   11       0.895719497749      0.194027508481      0.297369361599
   12      -0.895719497749      0.194027508481      0.297369361599
   13      -0.895719497749      0.194027508481     -0.297369361599
   14       1.006395606793     -1.178613724030      0.000000000000
   15      -1.006395606793      1.178613724030      0.000000000000
   16       0.895719497749     -0.194027508481      0.297369361599
   17       0.895719497749     -0.194027508481     -0.297369361599
   18      -0.895719497749     -0.194027508481     -0.297369361599
   19      -0.895719497749     -0.194027508481      0.297369361599
   20       1.006395606793      1.178613724030     -0.000000000000
 
 cartesian coordinates (angstrom) at end:
    1      0.02430722589937     2.78665649395381     3.05480773088792
    2      1.40552959171081     1.32797951847548     3.05480773088792
    3      1.45414404350955     1.58937443248119     1.01826924362931
    4      2.83536640932099     0.13069745700286     1.01826924362931
    5      0.00000000000000     1.45867697547834     0.00000000000000
    6      0.00000000000000     1.45867697547834     2.03653848725861
    7      1.42983681761018     0.00000000000000     0.00000000000000
    8      1.42983681761018     0.00000000000000     2.03653848725861
    9      0.22334051091071     1.39857948408863     1.01826924362931
   10      0.59338227930822     0.60710135719408     2.20231272012147
   11      0.59338227930822     0.60710135719408     3.90730274165438
   12      0.83645453830196     2.06577833267242     3.90730274165438
   13      0.83645453830196     2.06577833267242     2.20231272012147
   14      1.20649630669947     2.85725645956696     1.01826924362931
   15      1.65317732852089     0.06009749138971     3.05480773088792
   16      2.02321909691840     0.85157561828425     1.87076425439576
   17      2.02321909691840     0.85157561828425     0.16577423286285
   18      2.26629135591213     2.31025259376259     0.16577423286285
   19      2.26629135591213     2.31025259376259     1.87076425439576
   20      2.63633312430965     1.51877446686804     3.05480773088792
 
 cartesian forces (hartree/bohr) at end:
    1     -0.07815091164219     0.59914246793426     0.00000000000000
    2      0.07815091164219     0.59914246793426     0.00000000000000
    3     -0.07815091164219    -0.59914246793426     0.00000000000000
    4      0.07815091164219    -0.59914246793426     0.00000000000000
    5      0.00000000000000     0.00000000000000     0.00000000000000
    6      0.00000000000000     0.00000000000000     0.00000000000000
    7      0.00000000000000     0.00000000000000     0.00000000000000
    8      0.00000000000000     0.00000000000000     0.00000000000000
    9      0.18623160747467     0.21378808707230     0.00000000000000
   10     -0.16575120239617    -0.03519454171615     0.03863444999340
   11     -0.16575120239617    -0.03519454171615    -0.03863444999340
   12      0.16575120239617    -0.03519454171615    -0.03863444999340
   13      0.16575120239617    -0.03519454171615     0.03863444999340
   14     -0.18623160747467     0.21378808707230     0.00000000000000
   15      0.18623160747467    -0.21378808707230     0.00000000000000
   16     -0.16575120239617     0.03519454171615    -0.03863444999340
   17     -0.16575120239617     0.03519454171615     0.03863444999340
   18      0.16575120239617     0.03519454171615     0.03863444999340
   19      0.16575120239617     0.03519454171615    -0.03863444999340
   20     -0.18623160747467    -0.21378808707230     0.00000000000000
 frms,max,avg= 1.8364391E-01 5.9914247E-01   0.000E+00  0.000E+00  0.000E+00 h/b
 
 cartesian forces (eV/Angstrom) at end:
    1     -4.01868111699480    30.80914184726088     0.00000000000000
    2      4.01868111699480    30.80914184726088     0.00000000000000
    3     -4.01868111699480   -30.80914184726089     0.00000000000000
    4      4.01868111699480   -30.80914184726089     0.00000000000000
    5      0.00000000000000     0.00000000000000     0.00000000000000
    6      0.00000000000000     0.00000000000000     0.00000000000000
    7      0.00000000000000     0.00000000000000     0.00000000000000
    8      0.00000000000000     0.00000000000000     0.00000000000000
    9      9.57641348795200    10.99342452317688     0.00000000000000
   10     -8.52326880380292    -1.80977594814935     1.98666312895756
   11     -8.52326880380292    -1.80977594814935    -1.98666312895756
   12      8.52326880380292    -1.80977594814935    -1.98666312895756
   13      8.52326880380292    -1.80977594814935     1.98666312895756
   14     -9.57641348795200    10.99342452317688     0.00000000000000
   15      9.57641348795200   -10.99342452317688     0.00000000000000
   16     -8.52326880380292     1.80977594814935    -1.98666312895756
   17     -8.52326880380292     1.80977594814935     1.98666312895756
   18      8.52326880380292     1.80977594814935     1.98666312895756
   19      8.52326880380292     1.80977594814935    -1.98666312895756
   20     -9.57641348795200   -10.99342452317688     0.00000000000000
 frms,max,avg= 9.4433488E+00 3.0809142E+01   0.000E+00  0.000E+00  0.000E+00 e/A
 length scales=  5.404000000000  5.513000000000  7.697000000000 bohr
              =  2.859673635220  2.917353950957  4.073076974517 angstroms
 prteigrs : about to open file spo_EIG
 Fermi (or HOMO) energy (hartree) =   2.38696   Average Vxc (hartree)=  -0.93865
 Eigenvalues (hartree) for nkpt=   1  k points:
 kpt#   1, nband= 90, wtk=  1.00000, kpt=  0.2500  0.2500  0.2500 (reduced coord)
  -0.81239   -0.74974   -0.72817   -0.68318   -0.28555   -0.26992   -0.17804   -0.17508
  -0.12259   -0.09611   -0.05602   -0.01997    0.00283    0.05561    0.06345    0.10841
   0.20616    0.32650    0.34071    0.46450    0.48412    0.52075    0.58911    0.63883
   0.67475    0.68329    0.71153    0.75975    0.78401    0.80583    0.82468    0.84713
   0.84816    0.88918    0.93011    0.96089    0.98583    1.01632    1.04390    1.05820
   1.13694    1.16329    1.19911    1.23219    1.25524    1.30947    1.34799    1.38313
   1.41358    1.45216    1.48191    1.53821    1.59772    1.61606    1.67549    1.69908
   1.72145    1.78804    1.79449    1.81079    1.81979    1.88381    1.90046    1.92151
   1.93444    1.99193    2.01084    2.07942    2.10900    2.15295    2.17586    2.20247
   2.21349    2.24131    2.25179    2.25899    2.27649    2.30842    2.35447    2.38696
   2.41447    2.44253    2.45393    2.48087    2.49297    2.50147    2.53773    2.56219
   2.58156    2.60065
 
--------------------------------------------------------------------------------
 Components of total free energy (in Hartree) :
 
    Kinetic energy  =  4.62399623368206E+02
    Hartree energy  =  3.46136338133494E+01
    XC energy       = -1.45820470035955E+02
    Ewald energy    = -8.20595119615796E+02
    PspCore energy  =  1.27273713193440E+02
    Loc. psp. energy= -1.40491967607832E+02
    NL   psp  energy= -5.53327019964252E+01
    >>>>>>>>> Etotal= -5.37953288881013E+02
 
 Other information on the energy :
    Total energy(eV)= -1.46384534424907E+04 ; Band energy (Ha)=   1.7107700314E+02
--------------------------------------------------------------------------------
 
 
 
 Cartesian components of stress tensor (hartree/bohr^3)
  sigma(1 1)= -3.37154504E-01  sigma(3 2)=  0.00000000E+00
  sigma(2 2)= -3.29732933E-01  sigma(3 1)=  0.00000000E+00
  sigma(3 3)= -3.44591194E-01  sigma(2 1)=  0.00000000E+00
 
-Cartesian components of stress tensor (GPa)         [Pressure=  9.9196E+03 GPa]
- sigma(1 1)= -9.91942631E+03  sigma(3 2)=  0.00000000E+00
- sigma(2 2)= -9.70107619E+03  sigma(3 1)=  0.00000000E+00
- sigma(3 3)= -1.01382212E+04  sigma(2 1)=  0.00000000E+00
 
== END DATASET(S) ==============================================================
================================================================================
  
 -outvars: echo values of variables after computation  --------
            acell      5.4040000000E+00  5.5130000000E+00  7.6970000000E+00 Bohr
              amu      4.00780000E+01  4.78800000E+01  1.59994000E+01
             ecut      3.00000000E+01 Hartree
           etotal     -5.3795328888E+02
            fcart     -7.8150911642E-02  5.9914246793E-01  6.9388939039E-19
                       7.8150911642E-02  5.9914246793E-01  6.9388939039E-19
                      -7.8150911642E-02 -5.9914246793E-01  6.9388939039E-19
                       7.8150911642E-02 -5.9914246793E-01  6.9388939039E-19
                       0.0000000000E+00  9.7144514655E-18  6.9388939039E-19
                       0.0000000000E+00  9.7144514655E-18  6.9388939039E-19
                       0.0000000000E+00  9.7144514655E-18  6.9388939039E-19
                       0.0000000000E+00  9.7144514655E-18  6.9388939039E-19
                       1.8623160747E-01  2.1378808707E-01  6.9388939039E-19
                      -1.6575120240E-01 -3.5194541716E-02  3.8634449993E-02
                      -1.6575120240E-01 -3.5194541716E-02 -3.8634449993E-02
                       1.6575120240E-01 -3.5194541716E-02 -3.8634449993E-02
                       1.6575120240E-01 -3.5194541716E-02  3.8634449993E-02
                      -1.8623160747E-01  2.1378808707E-01  6.9388939039E-19
                       1.8623160747E-01 -2.1378808707E-01  6.9388939039E-19
                      -1.6575120240E-01  3.5194541716E-02 -3.8634449993E-02
                      -1.6575120240E-01  3.5194541716E-02  3.8634449993E-02
                       1.6575120240E-01  3.5194541716E-02  3.8634449993E-02
                       1.6575120240E-01  3.5194541716E-02 -3.8634449993E-02
                      -1.8623160747E-01 -2.1378808707E-01  6.9388939039E-19
-          fftalg         312
              ixc          11
              kpt      2.50000000E-01  2.50000000E-01  2.50000000E-01
         kptrlatt        2    0    0      0    2    0      0    0    2
          kptrlen      1.08080000E+01
P           mkmem           1
            natom          20
            nband          90
            ngfft          30      30      40
             nkpt           1
             nsym           8
           ntypat           3
              occ      2.000000  2.000000  2.000000  2.000000  2.000000  2.000000
                       2.000000  2.000000  2.000000  2.000000  2.000000  2.000000
                       2.000000  2.000000  2.000000  2.000000  2.000000  2.000000
                       2.000000  2.000000  2.000000  2.000000  2.000000  2.000000
                       2.000000  2.000000  2.000000  2.000000  2.000000  2.000000
                       2.000000  2.000000  2.000000  2.000000  2.000000  2.000000
                       2.000000  2.000000  2.000000  2.000000  2.000000  2.000000
                       2.000000  2.000000  2.000000  2.000000  2.000000  2.000000
                       2.000000  2.000000  2.000000  2.000000  2.000000  2.000000
                       2.000000  2.000000  2.000000  2.000000  2.000000  2.000000
                       2.000000  2.000000  2.000000  2.000000  2.000000  2.000000
                       2.000000  2.000000  2.000000  2.000000  2.000000  2.000000
                       2.000000  2.000000  2.000000  2.000000  2.000000  2.000000
                       2.000000  2.000000  0.000000  0.000000  0.000000  0.000000
                       0.000000  0.000000  0.000000  0.000000  0.000000  0.000000
           shiftk      5.00000000E-01  5.00000000E-01  5.00000000E-01
          spgroup          62
           strten     -3.3715450427E-01 -3.2973293317E-01 -3.4459119389E-01
                       0.0000000000E+00  0.0000000000E+00  0.0000000000E+00
           symrel      1  0  0   0  1  0   0  0  1      -1  0  0   0 -1  0   0  0 -1
                      -1  0  0   0  1  0   0  0 -1       1  0  0   0 -1  0   0  0  1
                      -1  0  0   0 -1  0   0  0  1       1  0  0   0  1  0   0  0 -1
                       1  0  0   0 -1  0   0  0 -1      -1  0  0   0  1  0   0  0  1
            tnons      0.0000000  0.0000000  0.0000000     0.0000000  0.0000000  0.0000000
                       0.5000000  0.5000000  0.5000000     0.5000000  0.5000000  0.5000000
                       0.0000000  0.0000000  0.5000000     0.0000000  0.0000000  0.5000000
                       0.5000000  0.5000000  0.0000000     0.5000000  0.5000000  0.0000000
           toldfe      1.00000000E-10 Hartree
            typat      1  1  1  1  2  2  2  2  3  3  3  3  3  3  3  3  3  3  3  3
           xangst      2.4307225899E-02  2.7866564940E+00  3.0548077309E+00
                       1.4055295917E+00  1.3279795185E+00  3.0548077309E+00
                       1.4541440435E+00  1.5893744325E+00  1.0182692436E+00
                       2.8353664093E+00  1.3069745700E-01  1.0182692436E+00
                       0.0000000000E+00  1.4586769755E+00  0.0000000000E+00
                       0.0000000000E+00  1.4586769755E+00  2.0365384873E+00
                       1.4298368176E+00  0.0000000000E+00  0.0000000000E+00
                       1.4298368176E+00  0.0000000000E+00  2.0365384873E+00
                       2.2334051091E-01  1.3985794841E+00  1.0182692436E+00
                       5.9338227931E-01  6.0710135719E-01  2.2023127201E+00
                       5.9338227931E-01  6.0710135719E-01  3.9073027417E+00
                       8.3645453830E-01  2.0657783327E+00  3.9073027417E+00
                       8.3645453830E-01  2.0657783327E+00  2.2023127201E+00
                       1.2064963067E+00  2.8572564596E+00  1.0182692436E+00
                       1.6531773285E+00  6.0097491390E-02  3.0548077309E+00
                       2.0232190969E+00  8.5157561828E-01  1.8707642544E+00
                       2.0232190969E+00  8.5157561828E-01  1.6577423286E-01
                       2.2662913559E+00  2.3102525938E+00  1.6577423286E-01
                       2.2662913559E+00  2.3102525938E+00  1.8707642544E+00
                       2.6363331243E+00  1.5187744669E+00  3.0548077309E+00
            xcart      4.5934000000E-02  5.2660176000E+00  5.7727500000E+00
                       2.6560660000E+00  2.5095176000E+00  5.7727500000E+00
                       2.7479340000E+00  3.0034824000E+00  1.9242500000E+00
                       5.3580660000E+00  2.4698240000E-01  1.9242500000E+00
                       0.0000000000E+00  2.7565000000E+00  0.0000000000E+00
                       0.0000000000E+00  2.7565000000E+00  3.8485000000E+00
                       2.7020000000E+00  0.0000000000E+00  0.0000000000E+00
                       2.7020000000E+00  0.0000000000E+00  3.8485000000E+00
                       4.2205240000E-01  2.6429322000E+00  1.9242500000E+00
                       1.1213300000E+00  1.1472553000E+00  4.1617679000E+00
                       1.1213300000E+00  1.1472553000E+00  7.3837321000E+00
                       1.5806700000E+00  3.9037553000E+00  7.3837321000E+00
                       1.5806700000E+00  3.9037553000E+00  4.1617679000E+00
                       2.2799476000E+00  5.3994322000E+00  1.9242500000E+00
                       3.1240524000E+00  1.1356780000E-01  5.7727500000E+00
                       3.8233300000E+00  1.6092447000E+00  3.5352321000E+00
                       3.8233300000E+00  1.6092447000E+00  3.1326790000E-01
                       4.2826700000E+00  4.3657447000E+00  3.1326790000E-01
                       4.2826700000E+00  4.3657447000E+00  3.5352321000E+00
                       4.9819476000E+00  2.8700678000E+00  5.7727500000E+00
             xred      8.5000000000E-03  9.5520000000E-01  7.5000000000E-01
                       4.9150000000E-01  4.5520000000E-01  7.5000000000E-01
                       5.0850000000E-01  5.4480000000E-01  2.5000000000E-01
                       9.9150000000E-01  4.4800000000E-02  2.5000000000E-01
                       0.0000000000E+00  5.0000000000E-01  0.0000000000E+00
                       0.0000000000E+00  5.0000000000E-01  5.0000000000E-01
                       5.0000000000E-01  0.0000000000E+00  0.0000000000E+00
                       5.0000000000E-01  0.0000000000E+00  5.0000000000E-01
                       7.8100000000E-02  4.7940000000E-01  2.5000000000E-01
                       2.0750000000E-01  2.0810000000E-01  5.4070000000E-01
                       2.0750000000E-01  2.0810000000E-01  9.5930000000E-01
                       2.9250000000E-01  7.0810000000E-01  9.5930000000E-01
                       2.9250000000E-01  7.0810000000E-01  5.4070000000E-01
                       4.2190000000E-01  9.7940000000E-01  2.5000000000E-01
                       5.7810000000E-01  2.0600000000E-02  7.5000000000E-01
                       7.0750000000E-01  2.9190000000E-01  4.5930000000E-01
                       7.0750000000E-01  2.9190000000E-01  4.0700000000E-02
                       7.9250000000E-01  7.9190000000E-01  4.0700000000E-02
                       7.9250000000E-01  7.9190000000E-01  4.5930000000E-01
                       9.2190000000E-01  5.2060000000E-01  7.5000000000E-01
            znucl       20.00000   22.00000    8.00000
 
================================================================================


- Timing analysis has been suppressed with timopt=0



================================================================================

 Suggested references for the acknowledgment of ABINIT usage.

 The users of ABINIT have little formal obligations with respect to the ABINIT group
 (those specified in the GNU General Public License, http://www.gnu.org/copyleft/gpl.txt).
 However, it is common practice in the scientific literature,
 to acknowledge the efforts of people that have made the research possible.
 In this spirit, please find below suggested citations of work written by ABINIT developers,
 corresponding to implementations inside of ABINIT that you have used in the present run.
 Note also that it will be of great value to readers of publications presenting these results,
 to read papers enabling them to understand the theoretical formalism and details
 of the ABINIT implementation.
 For information on why they are suggested, see also https://docs.abinit.org/theory/acknowledgments.
-
- [1] Recent developments in the ABINIT software package.
- Computer Phys. Comm. 205, 106 (2016).
- X.Gonze, F.Jollet, F.Abreu Araujo, D.Adams, B.Amadon, T.Applencourt,
- C.Audouze, J.-M.Beuken, J.Bieder, A.Bokhanchuk, E.Bousquet, F.Bruneval
- D.Caliste, M.Cote, F.Dahm, F.Da Pieve, M.Delaveau, M.Di Gennaro,
- B.Dorado, C.Espejo, G.Geneste, L.Genovese, A.Gerossier, M.Giantomassi,
- Y.Gillet, D.R.Hamann, L.He, G.Jomard, J.Laflamme Janssen, S.Le Roux,
- A.Levitt, A.Lherbier, F.Liu, I.Lukacevic, A.Martin, C.Martins,
- M.J.T.Oliveira, S.Ponce, Y.Pouillon, T.Rangel, G.-M.Rignanese,
- A.H.Romero, B.Rousseau, O.Rubel, A.A.Shukri, M.Stankovski, M.Torrent,
- M.J.Van Setten, B.Van Troeye, M.J.Verstraete, D.Waroquier, J.Wiktor,
- B.Xu, A.Zhou, J.W.Zwanziger.
- Comment: the fourth generic paper describing the ABINIT project.
- Note that a version of this paper, that is not formatted for Computer Phys. Comm. 
- is available at https://www.abinit.org/about/ABINIT16.pdf .
- The licence allows the authors to put it on the Web.
- DOI and bibtex: see https://docs.abinit.org/theory/bibliography/#gonze2016
-
- [2] Optimized norm-conserving Vanderbilt pseudopotentials.
- D.R. Hamann, Phys. Rev. B 88, 085117 (2013).
- Comment: Some pseudopotential generated using the ONCVPSP code were used.
- DOI and bibtex: see https://docs.abinit.org/theory/bibliography/#hamann2013
-
- [3] ABINIT: First-principles approach of materials and nanosystem properties.
- Computer Phys. Comm. 180, 2582-2615 (2009).
- X. Gonze, B. Amadon, P.-M. Anglade, J.-M. Beuken, F. Bottin, P. Boulanger, F. Bruneval,
- D. Caliste, R. Caracas, M. Cote, T. Deutsch, L. Genovese, Ph. Ghosez, M. Giantomassi
- S. Goedecker, D.R. Hamann, P. Hermet, F. Jollet, G. Jomard, S. Leroux, M. Mancini, S. Mazevet,
- M.J.T. Oliveira, G. Onida, Y. Pouillon, T. Rangel, G.-M. Rignanese, D. Sangalli, R. Shaltaf,
- M. Torrent, M.J. Verstraete, G. Zerah, J.W. Zwanziger
- Comment: the third generic paper describing the ABINIT project.
- Note that a version of this paper, that is not formatted for Computer Phys. Comm. 
- is available at https://www.abinit.org/about/ABINIT_CPC_v10.pdf .
- The licence allows the authors to put it on the Web.
- DOI and bibtex: see https://docs.abinit.org/theory/bibliography/#gonze2009
-
- [4] A brief introduction to the ABINIT software package.
- Z. Kristallogr. 220, 558-562 (2005).
- X. Gonze, G.-M. Rignanese, M. Verstraete, J.-M. Beuken, Y. Pouillon, R. Caracas, F. Jollet,
- M. Torrent, G. Zerah, M. Mikami, Ph. Ghosez, M. Veithen, J.-Y. Raty, V. Olevano, F. Bruneval,
- L. Reining, R. Godby, G. Onida, D.R. Hamann, and D.C. Allan.
- Comment: the second generic paper describing the ABINIT project. Note that this paper
- should be cited especially if you are using the GW part of ABINIT, as several authors
- of this part are not in the list of authors of the first or third paper.
- The .pdf of the latter paper is available at https://www.abinit.org/about/zfk_0505-06_558-562.pdf.
- Note that it should not redistributed (Copyright by Oldenburg Wissenshaftverlag,
- the licence allows the authors to put it on the Web).
- DOI and bibtex: see https://docs.abinit.org/theory/bibliography/#gonze2005
-
- And optionally:
-
- [5] First-principles computation of material properties: the ABINIT software project. 
- X. Gonze, J.-M. Beuken, R. Caracas, F. Detraux, M. Fuchs, G.-M. Rignanese, L. Sindic,
- M. Verstraete, G. Zerah, F. Jollet, M. Torrent, A. Roy, M. Mikami, Ph. Ghosez, J.-Y. Raty, D.C. Allan.
- Computational Materials Science 25, 478-492 (2002). http://dx.doi.org/10.1016/S0927-0256(02)00325-7
- Comment: the original paper describing the ABINIT project.
- DOI and bibtex : see https://docs.abinit.org/theory/bibliography/#gonze2002
-
- Proc.   0 individual time (sec): cpu=         35.7  wall=         36.1
 
================================================================================
 
 Calculation completed.
.Delivered   0 WARNINGs and   3 COMMENTs to log file.
+Overall time at end (sec) : cpu=         35.7  wall=         36.1
