--------------------------------------------------------------------------
[[2520,1],0]: A high-performance Open MPI point-to-point messaging module
was unable to find any relevant network interfaces:

Module: OpenFabrics (openib)
  Host: abipy

Another transport will be used instead, although this may result in
lower performance.
--------------------------------------------------------------------------
  ABINIT 8.10.3
  
  Give name for formatted input file: 
tffield_2.in
  Give name for formatted output file:
tffield_2.out
  Give root name for generic input files:
tffield_2i
  Give root name for generic output files:
tffield_2o
  Give root name for generic temporary files:
tffield_2

.Version 8.10.3 of ABINIT 
.(MPI version, prepared for a x86_64_linux_gnu5.4 computer) 

.Copyright (C) 1998-2018 ABINIT group . 
 ABINIT comes with ABSOLUTELY NO WARRANTY.
 It is free software, and you are welcome to redistribute it
 under certain conditions (GNU General Public License,
 see ~abinit/COPYING or http://www.gnu.org/copyleft/gpl.txt).

 ABINIT is a project of the Universite Catholique de Louvain,
 Corning Inc. and other collaborators, see ~abinit/doc/developers/contributors.txt .
 Please read https://docs.abinit.org/theory/acknowledgments for suggested
 acknowledgments of the ABINIT effort.
 For more information, see https://www.abinit.org .

.Starting date : Fri  8 Nov 2019.
- ( at 12h25 )
  

 ++++++++++++++++++++++++++++++++++++++++++++++++++++++++++++++++++++++++++++++

 === Build Information === 
  Version       : 8.10.3
  Build target  : x86_64_linux_gnu5.4
  Build date    : 20191016

 === Compiler Suite === 
  C compiler       : gnu5.4
  C++ compiler     : gnu5.4
  Fortran compiler : gnu5.4
  CFLAGS           :  -g -O2 -mtune=native -march=native
  CXXFLAGS         :  -g -O2 -mtune=native -march=native
  FCFLAGS          :  -g -ffree-line-length-none  -fopenmp
  FC_LDFLAGS       : 

 === Optimizations === 
  Debug level        : basic
  Optimization level : standard
  Architecture       : unknown_unknown

 === Multicore === 
  Parallel build : yes
  Parallel I/O   : yes
  openMP support : yes
  GPU support    : no

 === Connectors / Fallbacks === 
  Connectors on : yes
  Fallbacks on  : yes
  DFT flavor    : none
  FFT flavor    : fftw3
  LINALG flavor : atlas
  MATH flavor   : none
  TIMER flavor  : abinit
  TRIO flavor   : netcdf

 === Experimental features === 
  Bindings            : @enable_bindings@
  Exports             : no
  GW double-precision : no

 ++++++++++++++++++++++++++++++++++++++++++++++++++++++++++++++++++++++++++++++


 ++++++++++++++++++++++++++++++++++++++++++++++++++++++++++++++++++++++++++++++
 Default optimizations:
   -O2 -mtune=native -march=native


 Optimizations for 43_ptgroups:
   -O0


 ++++++++++++++++++++++++++++++++++++++++++++++++++++++++++++++++++++++++++++++


 ++++++++++++++++++++++++++++++++++++++++++++++++++++++++++++++++++++++++++++++
 CPP options activated during the build:

                    CC_GNU                   CXX_GNU                    FC_GNU
 
 HAVE_FC_ALLOCATABLE_DT...             HAVE_FC_ASYNC         HAVE_FC_BACKTRACE
 
  HAVE_FC_COMMAND_ARGUMENT      HAVE_FC_COMMAND_LINE        HAVE_FC_CONTIGUOUS
 
           HAVE_FC_CPUTIME              HAVE_FC_EXIT             HAVE_FC_FLUSH
 
             HAVE_FC_GAMMA            HAVE_FC_GETENV   HAVE_FC_IEEE_EXCEPTIONS
 
          HAVE_FC_INT_QUAD             HAVE_FC_IOMSG     HAVE_FC_ISO_C_BINDING
 
  HAVE_FC_ISO_FORTRAN_2008        HAVE_FC_LONG_LINES        HAVE_FC_MOVE_ALLOC
 
           HAVE_FC_PRIVATE         HAVE_FC_PROTECTED         HAVE_FC_STREAM_IO
 
            HAVE_FC_SYSTEM                  HAVE_FFT            HAVE_FFT_FFTW3
 
              HAVE_FFT_MPI           HAVE_FFT_SERIAL          HAVE_FORTRAN2003
 
        HAVE_LIBPAW_ABINIT      HAVE_LIBTETRA_ABINIT               HAVE_LINALG
 
        HAVE_LINALG_SERIAL                  HAVE_MPI                 HAVE_MPI2
 
       HAVE_MPI_IALLREDUCE        HAVE_MPI_IALLTOALL       HAVE_MPI_IALLTOALLV
 
        HAVE_MPI_INTEGER16               HAVE_MPI_IO HAVE_MPI_TYPE_CREATE_S...
 
               HAVE_NETCDF           HAVE_NETCDF_MPI         HAVE_OMP_COLLAPSE
 
               HAVE_OPENMP             HAVE_OS_LINUX         HAVE_TIMER_ABINIT
 
              USE_MACROAVE                                                      
 ++++++++++++++++++++++++++++++++++++++++++++++++++++++++++++++++++++++++++++++

- input  file    -> tffield_2.in
- output file    -> tffield_2.out
- root for input  files -> tffield_2i
- root for output files -> tffield_2o


--- !WARNING
src_file: m_nctk.F90
src_line: 572
message: |
    netcdf lib does not support MPI-IO and: NetCDF: Parallel operation on file opened for non-parallel access
...

  Asked to delete not existent file: __TMP_FILE__

--- !WARNING
src_file: m_nctk.F90
src_line: 592
message: |
    The netcdf library does not support parallel IO, see message above
    Abinit won't be able to produce files in parallel e.g. when paral_kgb==1 is used.
    Action: install a netcdf4+HDF5 library with MPI-IO support.
...

-instrng: 92 lines of input have been read from file tffield_2.in


 Please give name of formatted atomic psp file
 iofn2 : for atom type 1, psp file is ../../../../../Psps_for_tests/13al.pspnc

 Please give name of formatted atomic psp file
 iofn2 : for atom type 2, psp file is ../../../../../Psps_for_tests/33as.pspnc
  read the values zionpsp=  3.0 , pspcod=   1 , lmax=   2
  read the values zionpsp=  5.0 , pspcod=   1 , lmax=   1

 inpspheads: deduce mpsang = 3, n1xccc = 2501.
 invars1 : treat image number: 1

 symlatt : the Bravais lattice is cF (face-centered cubic)
  xred   is defined in input file
 ingeo: takes atomic coordinates from input array xred

 symlatt : the Bravais lattice is cF (face-centered cubic)

 symlatt : the Bravais lattice is cF (face-centered cubic)
 symspgr : spgroup= 216  F-4 3 m   (=Td^2)
 symspgr : optical characteristics = isotropic
 ingeo: angdeg(1:3)=   60.00000000   60.00000000   60.00000000
 invars1 : treat image number: 1

 symlatt : the Bravais lattice is cF (face-centered cubic)
  xred   is defined in input file
 ingeo: takes atomic coordinates from input array xred

 symlatt : the Bravais lattice is cF (face-centered cubic)

 symlatt : the Bravais lattice is cF (face-centered cubic)
 symspgr : spgroup= 216  F-4 3 m   (=Td^2)
 symspgr : optical characteristics = isotropic
 ingeo: angdeg(1:3)=   60.00000000   60.00000000   60.00000000
 invars1 : treat image number: 1

 symlatt : the Bravais lattice is cF (face-centered cubic)
  xred   is defined in input file
 ingeo: takes atomic coordinates from input array xred

 symlatt : the Bravais lattice is cF (face-centered cubic)

 symlatt : the Bravais lattice is cF (face-centered cubic)
 symspgr : spgroup= 216  F-4 3 m   (=Td^2)
 symspgr : optical characteristics = isotropic
 ingeo: angdeg(1:3)=   60.00000000   60.00000000   60.00000000
 invars2: take the default value of fband=  1.25000000E-01
 chkneu : initialized the occupation numbers for occopt=    1, spin-unpolarized or antiferromagnetic case :
  2.00  2.00  2.00  2.00  0.00
 chkneu : initialized the occupation numbers for occopt=    1, spin-unpolarized or antiferromagnetic case :
  2.00  2.00  2.00  2.00
 chkneu : initialized the occupation numbers for occopt=    1, spin-unpolarized or antiferromagnetic case :
  2.00  2.00  2.00  2.00
npfft, npband, npspinor and npkpt:     1    1    1    4
mpi_setup: mkmem  undefined in the input file.Use default mkmem  = nkpt
 mpi_setup: With nkpt_me=7 and mkmem  = 28, ground state wf handled in core.
 Resetting mkmem  to nkpt_me to save memory space.
mpi_setup: mkqmem undefined in the input file.Use default mkqmem = nkpt
 mpi_setup: With nkpt_me=7 and mkqmem = 28, ground state wf handled in core.
 Resetting mkqmem to nkpt_me to save memory space.
mpi_setup: mk1mem undefined in the input file.Use default mk1mem = nkpt
 mpi_setup: With nkpt_me=7 and mk1mem = 28, ground state wf handled in core.
 Resetting mk1mem to nkpt_me to save memory space.
 For input ecut=  3.087000E+00 best grid ngfft=      12      12      12
       max ecut=  3.204391E+00

 ==== FFT mesh ====
  FFT mesh divisions ........................    12   12   12
  Augmented FFT divisions ...................    13   13   12
  FFT algorithm .............................   312
  FFT cache size ............................    16
 getmpw: optimal value of mpw= 80
npfft, npband, npspinor and npkpt:     1    1    1    4
mpi_setup: mkmem  undefined in the input file.Use default mkmem  = nkpt
 mpi_setup: With nkpt_me=108 and mkmem  = 432, ground state wf handled in core.
 Resetting mkmem  to nkpt_me to save memory space.
mpi_setup: mkqmem undefined in the input file.Use default mkqmem = nkpt
 mpi_setup: With nkpt_me=108 and mkqmem = 432, ground state wf handled in core.
 Resetting mkqmem to nkpt_me to save memory space.
mpi_setup: mk1mem undefined in the input file.Use default mk1mem = nkpt
 mpi_setup: With nkpt_me=108 and mk1mem = 432, ground state wf handled in core.
 Resetting mk1mem to nkpt_me to save memory space.
 For input ecut=  3.087000E+00 best grid ngfft=      12      12      12
       max ecut=  3.204391E+00

 ==== FFT mesh ====
  FFT mesh divisions ........................    12   12   12
  Augmented FFT divisions ...................    13   13   12
  FFT algorithm .............................   312
  FFT cache size ............................    16
 getmpw: optimal value of mpw= 80
npfft, npband, npspinor and npkpt:     1    1    1    4
mpi_setup: mkmem  undefined in the input file.Use default mkmem  = nkpt
 mpi_setup: With nkpt_me=108 and mkmem  = 432, ground state wf handled in core.
 Resetting mkmem  to nkpt_me to save memory space.
mpi_setup: mkqmem undefined in the input file.Use default mkqmem = nkpt
 mpi_setup: With nkpt_me=108 and mkqmem = 432, ground state wf handled in core.
 Resetting mkqmem to nkpt_me to save memory space.
mpi_setup: mk1mem undefined in the input file.Use default mk1mem = nkpt
 mpi_setup: With nkpt_me=108 and mk1mem = 432, ground state wf handled in core.
 Resetting mk1mem to nkpt_me to save memory space.
 For input ecut=  3.087000E+00 best grid ngfft=      12      12      12
       max ecut=  3.204391E+00

 ==== FFT mesh ====
  FFT mesh divisions ........................    12   12   12
  Augmented FFT divisions ...................    13   13   12
  FFT algorithm .............................   312
  FFT cache size ............................    16
 getmpw: optimal value of mpw= 80
 getmpw: optimal value of mpw= 80

 DATASET    1 : space group F-4 3 m (#216); Bravais cF (face-center cubic)

 getdim_nloc : deduce lmnmax  =   4, lnmax  =   2,
                      lmnmaxso=   4, lnmaxso=   2.
memory : analysis of memory needs
================================================================================
 Values of the parameters that define the memory need for DATASET  1.
     intxc =       0    ionmov =       0      iscf =       7    lmnmax =       2
     lnmax =       2     mgfft =      12  mpssoang =       3    mqgrid =    3001
     natom =       2  nloc_mem =       1    nspden =       1   nspinor =       1
    nsppol =       1      nsym =      24    n1xccc =    2501    ntypat =       2
    occopt =       1   xclevel =       1
-    mband =           5        mffmem =           1         mkmem =           7
       mpw =          80          nfft =        1728          nkpt =          28
================================================================================
P This job should need less than                       1.366 Mbytes of memory.
  Rough estimation (10% accuracy) of disk space for files :
_ WF disk file :      0.173 Mbytes ; DEN or POT disk file :      0.015 Mbytes.
================================================================================

 Biggest array : f_fftgr(disk), with      0.2129 MBytes.
 memana : allocated an array of      0.213 Mbytes, for testing purposes.
 memana: allocated       1.366Mbytes, for testing purposes. 
 The job will continue.

 DATASET    2 : space group F-4 3 m (#216); Bravais cF (face-center cubic)

 getdim_nloc : deduce lmnmax  =   4, lnmax  =   2,
                      lmnmaxso=   4, lnmaxso=   2.
memory : analysis of memory needs
================================================================================
 Values of the parameters that define the memory need for DATASET  2.
     intxc =       0    ionmov =       0      iscf =      -2    lmnmax =       2
     lnmax =       2     mgfft =      12  mpssoang =       3    mqgrid =    3001
     natom =       2  nloc_mem =       1    nspden =       1   nspinor =       1
    nsppol =       1      nsym =      24    n1xccc =    2501    ntypat =       2
    occopt =       1   xclevel =       1
-    mband =           4        mffmem =           1         mkmem =         108
       mpw =          80          nfft =        1728          nkpt =         432
================================================================================
P This job should need less than                       1.974 Mbytes of memory.
  Rough estimation (10% accuracy) of disk space for files :
_ WF disk file :      2.111 Mbytes ; DEN or POT disk file :      0.015 Mbytes.
================================================================================

 Biggest array : cg(disk), with      0.5293 MBytes.
 memana : allocated an array of      0.529 Mbytes, for testing purposes.
 memana: allocated       1.974Mbytes, for testing purposes. 
 The job will continue.

 DATASET    3 : space group F-4 3 m (#216); Bravais cF (face-center cubic)

 getdim_nloc : deduce lmnmax  =   4, lnmax  =   2,
                      lmnmaxso=   4, lnmaxso=   2.
 memorf : analysis of memory needs
================================================================================
 Values of the parameters that define the memory need for DATASET  3 (RF).
     intxc =       0      iscf =       7    lmnmax =       2     lnmax =       2
     mgfft =      12  mpssoang =       3    mqgrid =    3001     natom =       2
  nloc_mem =       1    nspden =       1   nspinor =       1    nsppol =       1
      nsym =      24    n1xccc =    2501    ntypat =       2    occopt =       1
   xclevel =       1
-    mband =           4        mffmem =           1         mkmem =         108
-   mkqmem =         108        mk1mem =         108           mpw =          80
      nfft =        1728          nkpt =         432
================================================================================
P This job should need less than                       3.180 Mbytes of memory.
  Rough estimation (10% accuracy) of disk space for files :
_ WF disk file :      2.111 Mbytes ; DEN or POT disk file :      0.015 Mbytes.
================================================================================

 Biggest array : cg(disk), with      0.5293 MBytes.
 memana : allocated an array of      0.529 Mbytes, for testing purposes.
 memana: allocated       3.180Mbytes, for testing purposes. 
 The job will continue.
--------------------------------------------------------------------------------
------------- Echo of variables that govern the present computation ------------
--------------------------------------------------------------------------------
-
- outvars: echo of selected default values                                      
-   iomode0 =  0 , fftalg0 =312 , wfoptalg0 =  0
-
- outvars: echo of global parameters not present in the input file              
-  max_nthreads =    1
-
 -outvars: echo values of preprocessed input variables --------
 
 These variables are accessible in NetCDF format (tffield_2o_OUT.nc)

            acell      1.0530000000E+01  1.0530000000E+01  1.0530000000E+01 Bohr
              amu      2.69815390E+01  7.49215900E+01
         berryopt1          0
         berryopt2         -2
         berryopt3          0
          dilatmx      1.05000000E+00
             ecut      2.80000000E+00 Hartree
           ecutsm      5.00000000E-01 Hartree
-          fftalg         312
           getddk1          0
           getddk2          0
           getddk3          2
           getden1          0
           getden2          1
           getden3          0
           getwfk1          0
           getwfk2          1
           getwfk3          2
             iscf1          7
             iscf2         -2
             iscf3          7
              ixc           3
           jdtset        1    2    3
              kpt1    -8.33333333E-02 -1.66666667E-01  0.00000000E+00
                      -8.33333333E-02 -3.33333333E-01  0.00000000E+00
                      -1.66666667E-01 -2.50000000E-01  0.00000000E+00
                      -8.33333333E-02 -2.50000000E-01  8.33333333E-02
                      -8.33333333E-02  5.00000000E-01  0.00000000E+00
                      -1.66666667E-01 -4.16666667E-01  0.00000000E+00
                      -8.33333333E-02 -4.16666667E-01  8.33333333E-02
                      -2.50000000E-01 -3.33333333E-01  0.00000000E+00
                      -1.66666667E-01 -3.33333333E-01  8.33333333E-02
                      -8.33333333E-02 -3.33333333E-01  1.66666667E-01
                      -8.33333333E-02  3.33333333E-01  0.00000000E+00
                      -1.66666667E-01  4.16666667E-01  0.00000000E+00
                      -2.50000000E-01  5.00000000E-01  0.00000000E+00
                      -1.66666667E-01  5.00000000E-01  8.33333333E-02
                      -3.33333333E-01 -4.16666667E-01  0.00000000E+00
                      -2.50000000E-01 -4.16666667E-01  8.33333333E-02
                      -1.66666667E-01 -4.16666667E-01  1.66666667E-01
                      -8.33333333E-02 -4.16666667E-01  2.50000000E-01
                      -8.33333333E-02  1.66666667E-01  0.00000000E+00
                      -1.66666667E-01  2.50000000E-01  0.00000000E+00
                      -2.50000000E-01  3.33333333E-01  0.00000000E+00
                      -3.33333333E-01  4.16666667E-01  0.00000000E+00
                      -4.16666667E-01  5.00000000E-01  0.00000000E+00
                      -3.33333333E-01  5.00000000E-01  8.33333333E-02
                      -2.50000000E-01  5.00000000E-01  1.66666667E-01
                      -8.33333333E-02  0.00000000E+00  0.00000000E+00
                      -2.50000000E-01  0.00000000E+00  0.00000000E+00
                      -4.16666667E-01  0.00000000E+00  0.00000000E+00
              kpt2    -8.33333333E-02 -1.66666667E-01  0.00000000E+00
                      -1.66666667E-01 -8.33333333E-02  0.00000000E+00
                      -8.33333333E-02 -8.33333333E-02  8.33333333E-02
                      -8.33333333E-02 -3.33333333E-01  0.00000000E+00
                      -1.66666667E-01 -2.50000000E-01  0.00000000E+00
                      -8.33333333E-02 -2.50000000E-01  8.33333333E-02
                      -2.50000000E-01 -1.66666667E-01  0.00000000E+00
                      -1.66666667E-01 -1.66666667E-01  8.33333333E-02
                      -8.33333333E-02 -1.66666667E-01  1.66666667E-01
                      -3.33333333E-01 -8.33333333E-02  0.00000000E+00
                      -2.50000000E-01 -8.33333333E-02  8.33333333E-02
                      -1.66666667E-01 -8.33333333E-02  1.66666667E-01
                      -8.33333333E-02 -8.33333333E-02  2.50000000E-01
                      -8.33333333E-02  5.00000000E-01  0.00000000E+00
                      -1.66666667E-01 -4.16666667E-01  0.00000000E+00
                      -8.33333333E-02 -4.16666667E-01  8.33333333E-02
                      -2.50000000E-01 -3.33333333E-01  0.00000000E+00
                      -1.66666667E-01 -3.33333333E-01  8.33333333E-02
                      -8.33333333E-02 -3.33333333E-01  1.66666667E-01
                      -3.33333333E-01 -2.50000000E-01  0.00000000E+00
                      -2.50000000E-01 -2.50000000E-01  8.33333333E-02
                      -1.66666667E-01 -2.50000000E-01  1.66666667E-01
                      -8.33333333E-02 -2.50000000E-01  2.50000000E-01
                      -4.16666667E-01 -1.66666667E-01  0.00000000E+00
                      -3.33333333E-01 -1.66666667E-01  8.33333333E-02
                      -2.50000000E-01 -1.66666667E-01  1.66666667E-01
                      -1.66666667E-01 -1.66666667E-01  2.50000000E-01
                      -8.33333333E-02 -1.66666667E-01  3.33333333E-01
                       5.00000000E-01 -8.33333333E-02  0.00000000E+00
                      -4.16666667E-01 -8.33333333E-02  8.33333333E-02
                      -3.33333333E-01 -8.33333333E-02  1.66666667E-01
                      -2.50000000E-01 -8.33333333E-02  2.50000000E-01
                      -1.66666667E-01 -8.33333333E-02  3.33333333E-01
                      -8.33333333E-02 -8.33333333E-02  4.16666667E-01
                      -8.33333333E-02  3.33333333E-01  0.00000000E+00
                      -1.66666667E-01  4.16666667E-01  0.00000000E+00
                      -8.33333333E-02  4.16666667E-01  8.33333333E-02
                      -2.50000000E-01  5.00000000E-01  0.00000000E+00
                      -1.66666667E-01  5.00000000E-01  8.33333333E-02
                      -8.33333333E-02  5.00000000E-01  1.66666667E-01
                      -3.33333333E-01 -4.16666667E-01  0.00000000E+00
                      -2.50000000E-01 -4.16666667E-01  8.33333333E-02
                      -1.66666667E-01 -4.16666667E-01  1.66666667E-01
                      -8.33333333E-02 -4.16666667E-01  2.50000000E-01
                      -4.16666667E-01 -3.33333333E-01  0.00000000E+00
                      -3.33333333E-01 -3.33333333E-01  8.33333333E-02
                      -2.50000000E-01 -3.33333333E-01  1.66666667E-01
                      -1.66666667E-01 -3.33333333E-01  2.50000000E-01
                      -8.33333333E-02 -3.33333333E-01  3.33333333E-01
                       5.00000000E-01 -2.50000000E-01  0.00000000E+00
              kpt3    -8.33333333E-02 -1.66666667E-01  0.00000000E+00
                      -1.66666667E-01 -8.33333333E-02  0.00000000E+00
                      -8.33333333E-02 -8.33333333E-02  8.33333333E-02
                      -8.33333333E-02 -3.33333333E-01  0.00000000E+00
                      -1.66666667E-01 -2.50000000E-01  0.00000000E+00
                      -8.33333333E-02 -2.50000000E-01  8.33333333E-02
                      -2.50000000E-01 -1.66666667E-01  0.00000000E+00
                      -1.66666667E-01 -1.66666667E-01  8.33333333E-02
                      -8.33333333E-02 -1.66666667E-01  1.66666667E-01
                      -3.33333333E-01 -8.33333333E-02  0.00000000E+00
                      -2.50000000E-01 -8.33333333E-02  8.33333333E-02
                      -1.66666667E-01 -8.33333333E-02  1.66666667E-01
                      -8.33333333E-02 -8.33333333E-02  2.50000000E-01
                      -8.33333333E-02  5.00000000E-01  0.00000000E+00
                      -1.66666667E-01 -4.16666667E-01  0.00000000E+00
                      -8.33333333E-02 -4.16666667E-01  8.33333333E-02
                      -2.50000000E-01 -3.33333333E-01  0.00000000E+00
                      -1.66666667E-01 -3.33333333E-01  8.33333333E-02
                      -8.33333333E-02 -3.33333333E-01  1.66666667E-01
                      -3.33333333E-01 -2.50000000E-01  0.00000000E+00
                      -2.50000000E-01 -2.50000000E-01  8.33333333E-02
                      -1.66666667E-01 -2.50000000E-01  1.66666667E-01
                      -8.33333333E-02 -2.50000000E-01  2.50000000E-01
                      -4.16666667E-01 -1.66666667E-01  0.00000000E+00
                      -3.33333333E-01 -1.66666667E-01  8.33333333E-02
                      -2.50000000E-01 -1.66666667E-01  1.66666667E-01
                      -1.66666667E-01 -1.66666667E-01  2.50000000E-01
                      -8.33333333E-02 -1.66666667E-01  3.33333333E-01
                       5.00000000E-01 -8.33333333E-02  0.00000000E+00
                      -4.16666667E-01 -8.33333333E-02  8.33333333E-02
                      -3.33333333E-01 -8.33333333E-02  1.66666667E-01
                      -2.50000000E-01 -8.33333333E-02  2.50000000E-01
                      -1.66666667E-01 -8.33333333E-02  3.33333333E-01
                      -8.33333333E-02 -8.33333333E-02  4.16666667E-01
                      -8.33333333E-02  3.33333333E-01  0.00000000E+00
                      -1.66666667E-01  4.16666667E-01  0.00000000E+00
                      -8.33333333E-02  4.16666667E-01  8.33333333E-02
                      -2.50000000E-01  5.00000000E-01  0.00000000E+00
                      -1.66666667E-01  5.00000000E-01  8.33333333E-02
                      -8.33333333E-02  5.00000000E-01  1.66666667E-01
                      -3.33333333E-01 -4.16666667E-01  0.00000000E+00
                      -2.50000000E-01 -4.16666667E-01  8.33333333E-02
                      -1.66666667E-01 -4.16666667E-01  1.66666667E-01
                      -8.33333333E-02 -4.16666667E-01  2.50000000E-01
                      -4.16666667E-01 -3.33333333E-01  0.00000000E+00
                      -3.33333333E-01 -3.33333333E-01  8.33333333E-02
                      -2.50000000E-01 -3.33333333E-01  1.66666667E-01
                      -1.66666667E-01 -3.33333333E-01  2.50000000E-01
                      -8.33333333E-02 -3.33333333E-01  3.33333333E-01
                       5.00000000E-01 -2.50000000E-01  0.00000000E+00
                       outvar_i_n : Printing only first  50 k-points.
           kptopt1          1
           kptopt2          2
           kptopt3          2
         kptrlatt        6   -6    6     -6    6    6     -6   -6    6
          kptrlen      6.31800000E+01
P           mkmem1          7
P           mkmem2        108
P           mkmem3        108
P          mkqmem1          7
P          mkqmem2        108
P          mkqmem3        108
P          mk1mem1          7
P          mk1mem2        108
P          mk1mem3        108
            natom           2
            nband1          5
            nband2          4
            nband3          4
           nbdbuf1          0
           nbdbuf2          2
           nbdbuf3          0
           ndtset           3
            ngfft          12      12      12
             nkpt1         28
             nkpt2        432
             nkpt3        432
            nstep         100
             nsym          24
           ntypat           2
              occ1     2.000000  2.000000  2.000000  2.000000  0.000000
              occ3     2.000000  2.000000  2.000000  2.000000
        optdriver1          0
        optdriver2          0
        optdriver3          1
          rfatpol1          1       1
          rfatpol2          1       1
          rfatpol3          1       2
            rfdir1          0       0       0
            rfdir2          1       1       1
            rfdir3          1       1       1
           rfphon1          0
           rfphon2          0
           rfphon3          1
           rfstrs1          0
           rfstrs2          0
           rfstrs3          3
            rprim      0.0000000000E+00  5.0000000000E-01  5.0000000000E-01
                       5.0000000000E-01  0.0000000000E+00  5.0000000000E-01
                       5.0000000000E-01  5.0000000000E-01  0.0000000000E+00
           shiftk      5.00000000E-01  5.00000000E-01  5.00000000E-01
          spgroup         216
           symrel      1  0  0   0  1  0   0  0  1       0 -1  1   0 -1  0   1 -1  0
                      -1  0  0  -1  0  1  -1  1  0       0  1 -1   1  0 -1   0  0 -1
                      -1  0  0  -1  1  0  -1  0  1       0 -1  1   1 -1  0   0 -1  0
                       1  0  0   0  0  1   0  1  0       0  1 -1   0  0 -1   1  0 -1
                      -1  0  1  -1  1  0  -1  0  0       0 -1  0   1 -1  0   0 -1  1
                       1  0 -1   0  0 -1   0  1 -1       0  1  0   0  0  1   1  0  0
                       1  0 -1   0  1 -1   0  0 -1       0 -1  0   0 -1  1   1 -1  0
                      -1  0  1  -1  0  0  -1  1  0       0  1  0   1  0  0   0  0  1
                       0  0 -1   0  1 -1   1  0 -1       1 -1  0   0 -1  1   0 -1  0
                       0  0  1   1  0  0   0  1  0      -1  1  0  -1  0  0  -1  0  1
                       0  0  1   0  1  0   1  0  0       1 -1  0   0 -1  0   0 -1  1
                       0  0 -1   1  0 -1   0  1 -1      -1  1  0  -1  0  1  -1  0  0
           toldfe1     1.00000000E-12 Hartree
           toldfe2     0.00000000E+00 Hartree
           toldfe3     1.00000000E-12 Hartree
           tolwfr1     0.00000000E+00
           tolwfr2     1.00000000E-22
           tolwfr3     0.00000000E+00
            typat      1  2
              wtk1       0.02778    0.02778    0.02778    0.05556    0.02778    0.02778
                         0.05556    0.02778    0.05556    0.05556    0.02778    0.02778
                         0.02778    0.05556    0.02778    0.05556    0.05556    0.05556
                         0.02778    0.02778    0.02778    0.02778    0.02778    0.05556
                         0.05556    0.00926    0.00926    0.00926
              wtk2       0.00231    0.00231    0.00231    0.00231    0.00231    0.00231
                         0.00231    0.00231    0.00231    0.00231    0.00231    0.00231
                         0.00231    0.00231    0.00231    0.00231    0.00231    0.00231
                         0.00231    0.00231    0.00231    0.00231    0.00231    0.00231
                         0.00231    0.00231    0.00231    0.00231    0.00231    0.00231
                         0.00231    0.00231    0.00231    0.00231    0.00231    0.00231
                         0.00231    0.00231    0.00231    0.00231    0.00231    0.00231
                         0.00231    0.00231    0.00231    0.00231    0.00231    0.00231
                         0.00231    0.00231
              wtk3       0.00231    0.00231    0.00231    0.00231    0.00231    0.00231
                         0.00231    0.00231    0.00231    0.00231    0.00231    0.00231
                         0.00231    0.00231    0.00231    0.00231    0.00231    0.00231
                         0.00231    0.00231    0.00231    0.00231    0.00231    0.00231
                         0.00231    0.00231    0.00231    0.00231    0.00231    0.00231
                         0.00231    0.00231    0.00231    0.00231    0.00231    0.00231
                         0.00231    0.00231    0.00231    0.00231    0.00231    0.00231
                         0.00231    0.00231    0.00231    0.00231    0.00231    0.00231
                         0.00231    0.00231
                       outvars : Printing only first  50 k-points.
           xangst      0.0000000000E+00  0.0000000000E+00  0.0000000000E+00
                       1.3930590016E+00  1.3930590016E+00  1.3930590016E+00
            xcart      0.0000000000E+00  0.0000000000E+00  0.0000000000E+00
                       2.6325000000E+00  2.6325000000E+00  2.6325000000E+00
             xred      0.0000000000E+00  0.0000000000E+00  0.0000000000E+00
                       2.5000000000E-01  2.5000000000E-01  2.5000000000E-01
            znucl       13.00000   33.00000

================================================================================

 chkinp: Checking input parameters for consistency, jdtset=   1.

 chkinp: Checking input parameters for consistency, jdtset=   2.

 chkinp: Checking input parameters for consistency, jdtset=   3.
 DATA TYPE INFORMATION: 
 REAL:      Data type name: REAL(DP) 
            Kind value:      8
            Precision:      15
            Smallest nonnegligible quantity relative to 1:  0.22204460E-15
            Smallest positive number:                       0.22250739-307
            Largest representable number:                   0.17976931+309
 INTEGER:   Data type name: INTEGER(default) 
            Kind value: 4
            Bit size:   32
            Largest representable number: 2147483647
 LOGICAL:   Data type name: LOGICAL 
            Kind value: 4
 CHARACTER: Data type name: CHARACTER             Kind value: 1

  ==== OpenMP parallelism is ON ====
- Max_threads:       1
- Num_threads:       1
- Num_procs:         8
- Dynamic:           F
- Nested:            F
 
  ==== Using MPI-2 specifications ==== 
  MPI-IO support is ON
  xmpi_tag_ub ................   2147483647
  xmpi_bsize_ch ..............            1
  xmpi_bsize_int .............            4
  xmpi_bsize_sp ..............            4
  xmpi_bsize_dp ..............            8
  xmpi_bsize_spc .............            8
  xmpi_bsize_dpc .............           16
  xmpio_bsize_frm ............            4
  xmpi_address_kind ..........            8
  xmpi_offset_kind ...........            8
  MPI_WTICK ..................    9.9999999999999995E-007

================================================================================
== DATASET  1 ==================================================================
-   nproc =    4


--- !COMMENT
src_file: m_xgScalapack.F90
src_line: 251
message: |
    xgScalapack in auto mode
...


 getdim_nloc : deduce lmnmax  =   4, lnmax  =   2,
                      lmnmaxso=   4, lnmaxso=   2.
 Exchange-correlation functional for the present dataset will be:
  LDA: old Teter (4/91) fit to Ceperley-Alder data - ixc=3

 Unit cell volume ucvol=  2.9189397E+02 bohr^3
 Angles (23,13,12)=  6.00000000E+01  6.00000000E+01  6.00000000E+01 degrees

 getcut: wavevector=  0.0000  0.0000  0.0000  ngfft=  12  12  12
         ecut(hartree)=      3.087   => boxcut(ratio)=   2.03767
 kpgio: loop on k-points done in parallel
- pspini: atom type   1  psp file is ../../../../../Psps_for_tests/13al.pspnc
- pspatm: opening atomic psp file    ../../../../../Psps_for_tests/13al.pspnc
-  Troullier-Martins psp for element  Al        Thu Oct 27 17:31:05 EDT 1994
- 13.00000   3.00000    940714                znucl, zion, pspdat
    1    1    2    2      2001   0.00000      pspcod,pspxc,lmax,lloc,mmax,r2well

--- !WARNING
src_file: m_pspini.F90
src_line: 1088
message: |
    Pseudopotential file pspxc= 1,
    not equal to input ixc= 3.
    These parameters must agree to get the same xc 
    in ABINIT code as in psp construction.
    Action: check psp design or input file.
    Assume experienced user. Execution will continue.
...

    0   4.657  11.889    1   2.2761078        l,e99.0,e99.9,nproj,rcpsp
   0.00000000   0.00000000   0.00000000   0.00000000     rms, ekb1, ekb2, epsatm
    1   1.829   2.761    1   2.2761078        l,e99.0,e99.9,nproj,rcpsp
   0.00000000   0.00000000   0.00000000   0.00000000     rms, ekb1, ekb2, epsatm
    2   0.000   0.000    0   2.2761078        l,e99.0,e99.9,nproj,rcpsp
   0.00000000   0.00000000   0.00000000   0.00000000     rms, ekb1, ekb2, epsatm
    2.09673076353074    0.12648111154518    1.01742091001718   rchrg,fchrg,qchrg
  pspatm : epsatm=    0.22155260
         --- l  ekb(1:nproj) -->
             0    2.540658
             1    1.353815
 pspatm: atomic psp has been read  and splines computed

- pspini: atom type   2  psp file is ../../../../../Psps_for_tests/33as.pspnc
- pspatm: opening atomic psp file    ../../../../../Psps_for_tests/33as.pspnc
-  Troullier-Martins psp for element  As        Thu Oct 27 17:37:14 EDT 1994
- 33.00000   5.00000    940714                znucl, zion, pspdat
    1    1    1    1      2001   0.00000      pspcod,pspxc,lmax,lloc,mmax,r2well

--- !WARNING
src_file: m_pspini.F90
src_line: 1088
message: |
    Pseudopotential file pspxc= 1,
    not equal to input ixc= 3.
    These parameters must agree to get the same xc 
    in ABINIT code as in psp construction.
    Action: check psp design or input file.
    Assume experienced user. Execution will continue.
...

    0   4.772  10.829    1   2.5306160        l,e99.0,e99.9,nproj,rcpsp
   0.00000000   0.00000000   0.00000000   0.00000000     rms, ekb1, ekb2, epsatm
    1   2.745   5.580    0   2.5306160        l,e99.0,e99.9,nproj,rcpsp
   0.00000000   0.00000000   0.00000000   0.00000000     rms, ekb1, ekb2, epsatm
    2.05731715564010    0.36322996461007    2.76014815959125   rchrg,fchrg,qchrg
  pspatm : epsatm=   27.20579911
         --- l  ekb(1:nproj) -->
             0    0.838751
 pspatm: atomic psp has been read  and splines computed

   2.19418814E+02                                ecore*ucvol(ha*bohr**3)
 ==== Info on pseudopotentials ====
  Norm-conserving pseudopotentials
  Number of pseudopotentials ..    2
  Number of types of atoms   ..    2
  Scalar calculation (no spin-orbit term)
  Nonlocal part applied using Legendre polynomials
  Max number of non-local projectors over l and type   1
  Highest angular momentum +1 .......   3
  Max number of (l,n)   components ..   2
  Max number of (l,m,n) components ..   2

 Pseudo-Core Charge Info: 
   Number of radial points for pseudo-core charge .. 2501
   XC core-correction treatment (optnlxccc) ........    1
   Radius for pseudo-core charge for each type ..... 

  - Atom type    1 has pseudo-core radius ..  6.2902
  - Atom type    2 has pseudo-core radius ..  6.1720

 Info on the Q-grid used for form factors in spline form: 
   Number of q-points for radial functions ffspl ..   3001
   Number of q-points for vlspl ...................   3001
   vloc is computed in Reciprocal Space
   model core charge treated in real-space

  XC functional for type 1 is 1
  Pseudo valence available: no
  XC functional for type 2 is 1
  Pseudo valence available: no

 wfconv:     5 bands initialized randomly with npw=    68, for ikpt=     1
 wfconv:     5 bands initialized randomly with npw=    74, for ikpt=     2
 wfconv:     5 bands initialized randomly with npw=    74, for ikpt=     3
 wfconv:     5 bands initialized randomly with npw=    73, for ikpt=     4
 wfconv:     5 bands initialized randomly with npw=    74, for ikpt=     5
 wfconv:     5 bands initialized randomly with npw=    75, for ikpt=     6
 wfconv:     5 bands initialized randomly with npw=    76, for ikpt=     7
_setup2: Arith. and geom. avg. npw (full set) are      75.602      75.552
 initro: for itypat=  1, take decay length=      1.2500,
 initro: indeed, coreel=     10.0000, nval=  3 and densty=  0.0000E+00.
 initro: for itypat=  2, take decay length=      1.0000,
 initro: indeed, coreel=     28.0000, nval=  5 and densty=  0.0000E+00.

================================================================================

 getcut: wavevector=  0.0000  0.0000  0.0000  ngfft=  12  12  12
         ecut(hartree)=      2.800   => boxcut(ratio)=   2.13956

 ITER STEP NUMBER     1
 vtorho : nnsclo_now=2, note that nnsclo,dbl_nnsclo,istep=0 0 1
 Total charge density [el/Bohr^3]
      Maximum=    9.5915E-02  at reduced coord.    0.1667    0.1667    0.5000
      Minimum=    2.6947E-03  at reduced coord.    0.7500    0.7500    0.7500
   Integrated=    8.0000E+00
  rhotov : is_hybrid_ncpp= F
  rhotov : n3xccc=        1728
 ETOT  1  -10.081663941621    -1.008E+01 8.737E-03 9.294E-01
 scprqt: <Vxc>= -3.4650050E-01 hartree

Simple mixing update:
  residual square of the potential :  0.39583071072271092
 scfcv_core: previous iteration took 00 [s]

 ITER STEP NUMBER     2
 vtorho : nnsclo_now=2, note that nnsclo,dbl_nnsclo,istep=0 0 2
 Total charge density [el/Bohr^3]
      Maximum=    9.1314E-02  at reduced coord.    0.1667    0.1667    0.5000
      Minimum=    3.0712E-03  at reduced coord.    0.7500    0.7500    0.7500
   Integrated=    8.0000E+00
  rhotov : is_hybrid_ncpp= F
  rhotov : n3xccc=        1728
 ETOT  2  -10.085672066211    -4.008E-03 2.846E-05 2.460E-02
 scprqt: <Vxc>= -3.4857367E-01 hartree

 Pulay update with  1 previous iterations:
 mixing of old trial potential : alpha(m:m-4)=   1.00     -0.435E-02
 scfcv_core: previous iteration took 00 [s]

 ITER STEP NUMBER     3
 vtorho : nnsclo_now=1, note that nnsclo,dbl_nnsclo,istep=0 0 3
 Total charge density [el/Bohr^3]
      Maximum=    9.1567E-02  at reduced coord.    0.1667    0.1667    0.5000
      Minimum=    3.1182E-03  at reduced coord.    0.7500    0.7500    0.7500
   Integrated=    8.0000E+00
  rhotov : is_hybrid_ncpp= F
  rhotov : n3xccc=        1728
 ETOT  3  -10.085763378020    -9.131E-05 8.295E-06 1.970E-03
 scprqt: <Vxc>= -3.4852806E-01 hartree

 Pulay update with  2 previous iterations:
 mixing of old trial potential : alpha(m:m-4)=   1.03      0.586E-02 -0.318E-01
 scfcv_core: previous iteration took 00 [s]

 ITER STEP NUMBER     4
 vtorho : nnsclo_now=1, note that nnsclo,dbl_nnsclo,istep=0 0 4
 Total charge density [el/Bohr^3]
      Maximum=    9.1440E-02  at reduced coord.    0.1667    0.1667    0.5000
      Minimum=    3.1465E-03  at reduced coord.    0.7500    0.7500    0.7500
   Integrated=    8.0000E+00
  rhotov : is_hybrid_ncpp= F
  rhotov : n3xccc=        1728
 ETOT  4  -10.085769133800    -5.756E-06 4.103E-07 7.216E-05
 scprqt: <Vxc>= -3.4860803E-01 hartree

 Pulay update with  3 previous iterations:
 mixing of old trial potential : alpha(m:m-4)=   1.33     -0.317     -0.168E-01  0.797E-02
 scfcv_core: previous iteration took 00 [s]

 ITER STEP NUMBER     5
 vtorho : nnsclo_now=1, note that nnsclo,dbl_nnsclo,istep=0 0 5
 Total charge density [el/Bohr^3]
      Maximum=    9.1433E-02  at reduced coord.    0.1667    0.1667    0.5000
      Minimum=    3.1544E-03  at reduced coord.    0.7500    0.7500    0.7500
   Integrated=    8.0000E+00
  rhotov : is_hybrid_ncpp= F
  rhotov : n3xccc=        1728
 ETOT  5  -10.085769244430    -1.106E-07 9.730E-08 8.941E-07
 scprqt: <Vxc>= -3.4862082E-01 hartree

 Pulay update with  4 previous iterations:
 mixing of old trial potential : alpha(m:m-4)=   1.26     -0.330      0.656E-01  0.337E-02 -0.164E-02
 scfcv_core: previous iteration took 00 [s]

 ITER STEP NUMBER     6
 vtorho : nnsclo_now=1, note that nnsclo,dbl_nnsclo,istep=0 0 6
 Total charge density [el/Bohr^3]
      Maximum=    9.1432E-02  at reduced coord.    0.1667    0.1667    0.5000
      Minimum=    3.1552E-03  at reduced coord.    0.7500    0.7500    0.7500
   Integrated=    8.0000E+00
  rhotov : is_hybrid_ncpp= F
  rhotov : n3xccc=        1728
 ETOT  6  -10.085769246133    -1.703E-09 8.805E-09 1.353E-08
 scprqt: <Vxc>= -3.4862224E-01 hartree

 Pulay update with  5 previous iterations:
 mixing of old trial potential : alpha(m:m-4)=   1.36     -0.452      0.112     -0.222E-01 -0.110E-02
 scfcv_core: previous iteration took 00 [s]

 ITER STEP NUMBER     7
 vtorho : nnsclo_now=1, note that nnsclo,dbl_nnsclo,istep=0 0 7
 Total charge density [el/Bohr^3]
      Maximum=    9.1432E-02  at reduced coord.    0.1667    0.1667    0.5000
      Minimum=    3.1553E-03  at reduced coord.    0.7500    0.7500    0.7500
   Integrated=    8.0000E+00
  rhotov : is_hybrid_ncpp= F
  rhotov : n3xccc=        1728
 ETOT  7  -10.085769246152    -1.922E-11 1.782E-09 3.560E-10
 scprqt: <Vxc>= -3.4862220E-01 hartree

 Pulay update with  6 previous iterations:
 mixing of old trial potential : alpha(m:m-4)=   1.31     -0.388      0.946E-01 -0.239E-01  0.460E-02
 scfcv_core: previous iteration took 00 [s]

 ITER STEP NUMBER     8
 vtorho : nnsclo_now=1, note that nnsclo,dbl_nnsclo,istep=0 0 8
 Total charge density [el/Bohr^3]
      Maximum=    9.1432E-02  at reduced coord.    0.1667    0.1667    0.5000
      Minimum=    3.1553E-03  at reduced coord.    0.7500    0.7500    0.7500
   Integrated=    8.0000E+00
  rhotov : is_hybrid_ncpp= F
  rhotov : n3xccc=        1728
 ETOT  8  -10.085769246153    -6.093E-13 1.895E-10 1.687E-12
 scprqt: <Vxc>= -3.4862220E-01 hartree

 Pulay update with  7 previous iterations:
 mixing of old trial potential : alpha(m:m-4)=   1.15     -0.185      0.439E-01 -0.102E-01  0.270E-02
 scfcv_core: previous iteration took 00 [s]

 ITER STEP NUMBER     9
 vtorho : nnsclo_now=1, note that nnsclo,dbl_nnsclo,istep=0 0 9
 Total charge density [el/Bohr^3]
      Maximum=    9.1432E-02  at reduced coord.    0.1667    0.1667    0.5000
      Minimum=    3.1553E-03  at reduced coord.    0.7500    0.7500    0.7500
   Integrated=    8.0000E+00
  rhotov : is_hybrid_ncpp= F
  rhotov : n3xccc=        1728
 ETOT  9  -10.085769246153    -5.329E-15 3.730E-11 1.143E-14
 scprqt: <Vxc>= -3.4862219E-01 hartree

 At SCF step    9, etot is converged : 
  for the second time, diff in etot=  5.329E-15 < toldfe=  1.000E-12

 Cartesian components of stress tensor (hartree/bohr^3)
  sigma(1 1)= -3.11100708E-06  sigma(3 2)=  0.00000000E+00
  sigma(2 2)= -3.11100708E-06  sigma(3 1)=  0.00000000E+00
  sigma(3 3)= -3.11100708E-06  sigma(2 1)=  0.00000000E+00

 fftdatar_write: About to write data to: tffield_2o_DS1_DEN with iomode IO_MODE_FORTRAN
 IO operation completed. cpu_time:       0.0 [s], walltime:       0.0 [s]
================================================================================

 ----iterations are completed or convergence reached----


 === Gap info ===
  >>>> For spin  1
   Minimum optical gap =   3.0039 [eV], located at k-point      :  -0.0833  0.0000  0.0000
   Fundamental gap     =   1.5649 [eV], Top of valence bands at :  -0.0833  0.0000  0.0000
                                        Bottom of conduction at :  -0.4167  0.5000  0.0000
 Mean square residual over all n,k,spin=   26.847E-14; max=  37.304E-12
  -0.0833 -0.1667  0.0000    1  3.73040E-11 kpt; spin; max resid(k); each band:
  1.27E-16 4.18E-17 2.42E-19 1.31E-17 3.73E-11
  -0.0833 -0.3333  0.0000    1  1.34563E-16 kpt; spin; max resid(k); each band:
  1.10E-16 5.24E-17 1.33E-19 2.61E-17 1.35E-16
  -0.1667 -0.2500  0.0000    1  1.10232E-16 kpt; spin; max resid(k); each band:
  8.84E-17 5.38E-17 1.37E-17 1.15E-19 1.10E-16
  -0.0833 -0.2500  0.0833    1  7.98808E-15 kpt; spin; max resid(k); each band:
  9.44E-17 5.05E-17 2.63E-17 4.79E-18 7.99E-15
  -0.0833  0.5000  0.0000    1  1.22434E-16 kpt; spin; max resid(k); each band:
  8.45E-17 3.61E-17 2.47E-17 1.01E-18 1.22E-16
  -0.1667 -0.4167  0.0000    1  7.48418E-17 kpt; spin; max resid(k); each band:
  7.48E-17 4.07E-17 2.58E-17 1.38E-18 6.72E-17
  -0.0833 -0.4167  0.0833    1  1.43321E-15 kpt; spin; max resid(k); each band:
  7.74E-17 3.98E-17 3.45E-17 1.68E-18 1.43E-15
  -0.2500 -0.3333  0.0000    1  8.85951E-17 kpt; spin; max resid(k); each band:
  8.86E-17 4.98E-17 1.01E-17 1.28E-18 6.19E-17
  -0.1667 -0.3333  0.0833    1  8.29334E-17 kpt; spin; max resid(k); each band:
  7.88E-17 4.58E-17 2.65E-17 7.24E-18 8.29E-17
  -0.0833 -0.3333  0.1667    1  2.64553E-13 kpt; spin; max resid(k); each band:
  5.02E-17 4.32E-17 1.64E-17 1.78E-17 2.65E-13
  -0.0833  0.3333  0.0000    1  1.23265E-16 kpt; spin; max resid(k); each band:
  1.04E-16 5.02E-17 2.07E-17 7.99E-19 1.23E-16
  -0.1667  0.4167  0.0000    1  7.18131E-17 kpt; spin; max resid(k); each band:
  5.40E-17 2.87E-17 2.35E-17 1.18E-18 7.18E-17
  -0.2500  0.5000  0.0000    1  5.12653E-17 kpt; spin; max resid(k); each band:
  5.13E-17 2.84E-17 1.61E-17 1.12E-18 4.87E-17
  -0.1667  0.5000  0.0833    1  7.46199E-17 kpt; spin; max resid(k); each band:
  4.14E-17 2.39E-17 2.37E-17 1.60E-17 7.46E-17
  -0.3333 -0.4167  0.0000    1  7.34287E-17 kpt; spin; max resid(k); each band:
  7.34E-17 3.10E-17 8.01E-18 9.09E-19 6.33E-17
  -0.2500 -0.4167  0.0833    1  6.83917E-17 kpt; spin; max resid(k); each band:
  6.09E-17 3.03E-17 1.64E-17 1.64E-17 6.84E-17
  -0.1667 -0.4167  0.1667    1  2.24868E-15 kpt; spin; max resid(k); each band:
  2.83E-17 2.57E-17 2.58E-17 4.10E-17 2.25E-15
  -0.0833 -0.4167  0.2500    1  7.02287E-17 kpt; spin; max resid(k); each band:
  3.04E-17 1.91E-17 9.88E-18 2.40E-17 7.02E-17
  -0.0833  0.1667  0.0000    1  1.45088E-16 kpt; spin; max resid(k); each band:
  1.28E-16 4.64E-17 1.11E-17 2.20E-19 1.45E-16
  -0.1667  0.2500  0.0000    1  9.24179E-17 kpt; spin; max resid(k); each band:
  8.50E-17 4.92E-17 1.66E-17 9.98E-20 9.24E-17
  -0.2500  0.3333  0.0000    1  4.36119E-17 kpt; spin; max resid(k); each band:
  4.36E-17 3.14E-17 1.42E-17 1.18E-18 4.34E-17
  -0.3333  0.4167  0.0000    1  4.53530E-17 kpt; spin; max resid(k); each band:
  3.33E-17 1.59E-17 5.86E-18 9.68E-19 4.54E-17
  -0.4167  0.5000  0.0000    1  6.06834E-17 kpt; spin; max resid(k); each band:
  5.10E-17 8.49E-18 8.51E-18 7.06E-19 6.07E-17
  -0.3333  0.5000  0.0833    1  7.44298E-17 kpt; spin; max resid(k); each band:
  3.89E-17 1.13E-17 1.02E-17 2.41E-17 7.44E-17
  -0.2500  0.5000  0.1667    1  1.03899E-16 kpt; spin; max resid(k); each band:
  2.07E-17 8.53E-18 1.03E-17 5.72E-17 1.04E-16
  -0.0833  0.0000  0.0000    1  1.81190E-16 kpt; spin; max resid(k); each band:
  1.79E-16 2.60E-17 4.03E-19 4.03E-19 1.81E-16
  -0.2500  0.0000  0.0000    1  1.23399E-16 kpt; spin; max resid(k); each band:
  1.23E-16 5.23E-17 2.14E-19 2.14E-19 1.09E-16
  -0.4167  0.0000  0.0000    1  1.23614E-16 kpt; spin; max resid(k); each band:
  9.89E-17 4.41E-17 7.96E-19 7.96E-19 1.24E-16

 outwf: write wavefunction to file tffield_2o_DS1_WFK, with iomode -1
 outwf with iomode: -1, cpu_time:     0.00[s], walltime:     0.00 [s]
 prteigrs : about to open file tffield_2o_DS1_EIG
 Fermi (or HOMO) energy (hartree) =   0.09082   Average Vxc (hartree)=  -0.34862
 Eigenvalues (hartree) for nkpt=  28  k points:
 kpt#   1, nband=  5, wtk=  0.02778, kpt= -0.0833 -0.1667  0.0000 (reduced coord)
  -0.34039    0.02841    0.07421    0.07855    0.22149
 kpt#   2, nband=  5, wtk=  0.02778, kpt= -0.0833 -0.3333  0.0000 (reduced coord)
  -0.31616   -0.06145    0.05899    0.06020    0.20477
 kpt#   3, nband=  5, wtk=  0.02778, kpt= -0.1667 -0.2500  0.0000 (reduced coord)
  -0.32699   -0.01090    0.05221    0.05265    0.20326
 kpt#   4, nband=  5, wtk=  0.05556, kpt= -0.0833 -0.2500  0.0833 (reduced coord)
  -0.32127   -0.03528    0.03414    0.06869    0.22638
 kpt#   5, nband=  5, wtk=  0.02778, kpt= -0.0833  0.5000  0.0000 (reduced coord)
  -0.29336   -0.11361    0.04538    0.05754    0.19502
 kpt#   6, nband=  5, wtk=  0.02778, kpt= -0.1667 -0.4167  0.0000 (reduced coord)
  -0.30051   -0.08206    0.02485    0.04332    0.20268
 kpt#   7, nband=  5, wtk=  0.05556, kpt= -0.0833 -0.4167  0.0833 (reduced coord)
  -0.29464   -0.09997    0.02023    0.05216    0.21673
 kpt#   8, nband=  5, wtk=  0.02778, kpt= -0.2500 -0.3333  0.0000 (reduced coord)
  -0.30829   -0.04742    0.02742    0.03351    0.17958
 kpt#   9, nband=  5, wtk=  0.05556, kpt= -0.1667 -0.3333  0.0833 (reduced coord)
  -0.30394   -0.06262    0.01140    0.04105    0.20747
 kpt#  10, nband=  5, wtk=  0.05556, kpt= -0.0833 -0.3333  0.1667 (reduced coord)
  -0.29587   -0.08015   -0.01054    0.04929    0.23450
 kpt#  11, nband=  5, wtk=  0.02778, kpt= -0.0833  0.3333  0.0000 (reduced coord)
  -0.30661   -0.08544    0.04299    0.06855    0.20101
 kpt#  12, nband=  5, wtk=  0.02778, kpt= -0.1667  0.4167  0.0000 (reduced coord)
  -0.28834   -0.10754    0.00599    0.05061    0.20660
 kpt#  13, nband=  5, wtk=  0.02778, kpt= -0.2500  0.5000  0.0000 (reduced coord)
  -0.28465   -0.09377   -0.01185    0.03109    0.18381
 kpt#  14, nband=  5, wtk=  0.05556, kpt= -0.1667  0.5000  0.0833 (reduced coord)
  -0.28368   -0.10233   -0.01017    0.03367    0.21250
 kpt#  15, nband=  5, wtk=  0.02778, kpt= -0.3333 -0.4167  0.0000 (reduced coord)
  -0.28832   -0.08081    0.00901    0.01936    0.15992
 kpt#  16, nband=  5, wtk=  0.05556, kpt= -0.2500 -0.4167  0.0833 (reduced coord)
  -0.28574   -0.08480   -0.00803    0.01804    0.18797
 kpt#  17, nband=  5, wtk=  0.05556, kpt= -0.1667 -0.4167  0.1667 (reduced coord)
  -0.28159   -0.09086   -0.02561    0.01836    0.23643
 kpt#  18, nband=  5, wtk=  0.05556, kpt= -0.0833 -0.4167  0.2500 (reduced coord)
  -0.27731   -0.09504   -0.03773    0.02459    0.20367
 kpt#  19, nband=  5, wtk=  0.02778, kpt= -0.0833  0.1667  0.0000 (reduced coord)
  -0.33396   -0.00346    0.05791    0.08576    0.21807
 kpt#  20, nband=  5, wtk=  0.02778, kpt= -0.1667  0.2500  0.0000 (reduced coord)
  -0.31029   -0.06071    0.01047    0.07064    0.22894
 kpt#  21, nband=  5, wtk=  0.02778, kpt= -0.2500  0.3333  0.0000 (reduced coord)
  -0.28604   -0.09178   -0.02879    0.04654    0.20281
 kpt#  22, nband=  5, wtk=  0.02778, kpt= -0.3333  0.4167  0.0000 (reduced coord)
  -0.27418   -0.09701   -0.03664    0.02459    0.17237
 kpt#  23, nband=  5, wtk=  0.02778, kpt= -0.4167  0.5000  0.0000 (reduced coord)
  -0.27391   -0.10305   -0.00088    0.01164    0.14833
 kpt#  24, nband=  5, wtk=  0.05556, kpt= -0.3333  0.5000  0.0833 (reduced coord)
  -0.27301   -0.09870   -0.02029    0.00630    0.17685
 kpt#  25, nband=  5, wtk=  0.05556, kpt= -0.2500  0.5000  0.1667 (reduced coord)
  -0.27249   -0.09395   -0.03332   -0.00406    0.22850
 kpt#  26, nband=  5, wtk=  0.00926, kpt= -0.0833  0.0000  0.0000 (reduced coord)
  -0.34712    0.06533    0.09082    0.09082    0.20121
 kpt#  27, nband=  5, wtk=  0.00926, kpt= -0.2500  0.0000  0.0000 (reduced coord)
  -0.32791   -0.03323    0.07491    0.07491    0.19496
 kpt#  28, nband=  5, wtk=  0.00926, kpt= -0.4167  0.0000  0.0000 (reduced coord)
  -0.30022   -0.10559    0.06422    0.06422    0.17998
 Total charge density [el/Bohr^3]
      Maximum=    9.1432E-02  at reduced coord.    0.1667    0.1667    0.5000
 Next maximum=    9.1432E-02  at reduced coord.    0.1667    0.5000    0.1667
      Minimum=    3.1553E-03  at reduced coord.    0.7500    0.7500    0.7500
 Next minimum=    3.4993E-03  at reduced coord.    0.5000    0.5000    0.5000
   Integrated=    8.0000E+00

 Cartesian components of stress tensor (hartree/bohr^3)
  sigma(1 1)= -3.11100708E-06  sigma(3 2)=  0.00000000E+00
  sigma(2 2)= -3.11100708E-06  sigma(3 1)=  0.00000000E+00
  sigma(3 3)= -3.11100708E-06  sigma(2 1)=  0.00000000E+00

-Cartesian components of stress tensor (GPa)         [Pressure=  9.1529E-02 GPa]
- sigma(1 1)= -9.15289728E-02  sigma(3 2)=  0.00000000E+00
- sigma(2 2)= -9.15289728E-02  sigma(3 1)=  0.00000000E+00
- sigma(3 3)= -9.15289728E-02  sigma(2 1)=  0.00000000E+00

================================================================================
== DATASET  2 ==================================================================
-   nproc =    4


--- !COMMENT
src_file: m_xgScalapack.F90
src_line: 251
message: |
    xgScalapack in auto mode
...

 mkfilename : getwfk/=0, take file _WFK from output of DATASET   1.

 mkfilename : getden/=0, take file _DEN from output of DATASET   1.


 getdim_nloc : deduce lmnmax  =   4, lnmax  =   2,
                      lmnmaxso=   4, lnmaxso=   2.
 Exchange-correlation functional for the present dataset will be:
  LDA: old Teter (4/91) fit to Ceperley-Alder data - ixc=3

 Unit cell volume ucvol=  2.9189397E+02 bohr^3
 Angles (23,13,12)=  6.00000000E+01  6.00000000E+01  6.00000000E+01 degrees

 getcut: wavevector=  0.0000  0.0000  0.0000  ngfft=  12  12  12
         ecut(hartree)=      3.087   => boxcut(ratio)=   2.03767
 kpgio: loop on k-points done in parallel
inwffil: examining the header of disk file tffield_2o_DS1_WFK

================================================================================

          - hdr_check: checking restart file header for consistency -


        current calculation                         restart file
        -------------------                         ------------

  calculation expects a wf_planewave    |  input file contains a wf_planewave
. ABINIT  code version 8.10.3           |  ABINIT  code version 8.10.3
. date 20191108 bantot 1728 natom    2  |  date 20191108 bantot  140 natom    2
  nkpt 432 nsym 24 ngfft  12,  12,  12  |  nkpt  28 nsym 24 ngfft  12,  12,  12
  ntypat  2 ecut_eff   3.0870000        |  ntypat  2 ecut_eff   3.0870000
  usepaw  0                             |  usepaw  0
  usewvl  0                             |  usewvl  0
  rprimd:                               |  rprimd:
     0.0000000   5.2650000   5.2650000  |     0.0000000   5.2650000   5.2650000
     5.2650000   0.0000000   5.2650000  |     5.2650000   0.0000000   5.2650000
     5.2650000   5.2650000   0.0000000  |     5.2650000   5.2650000   0.0000000

--- !WARNING
src_file: m_hdr.F90
src_line: 4054
message: |
    input nkpt=432 not equal disk file nkpt=28
...

  symafm:                               |  symafm:
    1  1  1  1  1  1  1  1  1  1  1  1  |    1  1  1  1  1  1  1  1  1  1  1  1
    1  1  1  1  1  1  1  1  1  1  1  1  |    1  1  1  1  1  1  1  1  1  1  1  1
  symrel:                               |  symrel:
    1  0  0  0  1  0  0  0  1           |    1  0  0  0  1  0  0  0  1
    0 -1  1  0 -1  0  1 -1  0           |    0 -1  1  0 -1  0  1 -1  0
   -1  0  0 -1  0  1 -1  1  0           |   -1  0  0 -1  0  1 -1  1  0
    0  1 -1  1  0 -1  0  0 -1           |    0  1 -1  1  0 -1  0  0 -1
   -1  0  0 -1  1  0 -1  0  1           |   -1  0  0 -1  1  0 -1  0  1
    0 -1  1  1 -1  0  0 -1  0           |    0 -1  1  1 -1  0  0 -1  0
    1  0  0  0  0  1  0  1  0           |    1  0  0  0  0  1  0  1  0
    0  1 -1  0  0 -1  1  0 -1           |    0  1 -1  0  0 -1  1  0 -1
   -1  0  1 -1  1  0 -1  0  0           |   -1  0  1 -1  1  0 -1  0  0
    0 -1  0  1 -1  0  0 -1  1           |    0 -1  0  1 -1  0  0 -1  1
    1  0 -1  0  0 -1  0  1 -1           |    1  0 -1  0  0 -1  0  1 -1
    0  1  0  0  0  1  1  0  0           |    0  1  0  0  0  1  1  0  0
    1  0 -1  0  1 -1  0  0 -1           |    1  0 -1  0  1 -1  0  0 -1
    0 -1  0  0 -1  1  1 -1  0           |    0 -1  0  0 -1  1  1 -1  0
   -1  0  1 -1  0  0 -1  1  0           |   -1  0  1 -1  0  0 -1  1  0
    0  1  0  1  0  0  0  0  1           |    0  1  0  1  0  0  0  0  1
    0  0 -1  0  1 -1  1  0 -1           |    0  0 -1  0  1 -1  1  0 -1
    1 -1  0  0 -1  1  0 -1  0           |    1 -1  0  0 -1  1  0 -1  0
    0  0  1  1  0  0  0  1  0           |    0  0  1  1  0  0  0  1  0
   -1  1  0 -1  0  0 -1  0  1           |   -1  1  0 -1  0  0 -1  0  1
    0  0  1  0  1  0  1  0  0           |    0  0  1  0  1  0  1  0  0
    1 -1  0  0 -1  0  0 -1  1           |    1 -1  0  0 -1  0  0 -1  1
    0  0 -1  1  0 -1  0  1 -1           |    0  0 -1  1  0 -1  0  1 -1
   -1  1  0 -1  0  1 -1  0  0           |   -1  1  0 -1  0  1 -1  0  0
  typat:                                |  typat:
    1  2                                |    1  2
  so_psp  :                             |  so_psp  :
    1  1                                |    1  1

--- !WARNING
src_file: m_hdr.F90
src_line: 4300
message: |
    input kptopt= 2  /= disk file kptopt= 1
...

  tnons:                                |  tnons:
     0.0000000   0.0000000   0.0000000  |     0.0000000   0.0000000   0.0000000
     0.0000000   0.0000000   0.0000000  |     0.0000000   0.0000000   0.0000000
     0.0000000   0.0000000   0.0000000  |     0.0000000   0.0000000   0.0000000
     0.0000000   0.0000000   0.0000000  |     0.0000000   0.0000000   0.0000000
     0.0000000   0.0000000   0.0000000  |     0.0000000   0.0000000   0.0000000
     0.0000000   0.0000000   0.0000000  |     0.0000000   0.0000000   0.0000000
     0.0000000   0.0000000   0.0000000  |     0.0000000   0.0000000   0.0000000
     0.0000000   0.0000000   0.0000000  |     0.0000000   0.0000000   0.0000000
     0.0000000   0.0000000   0.0000000  |     0.0000000   0.0000000   0.0000000
     0.0000000   0.0000000   0.0000000  |     0.0000000   0.0000000   0.0000000
     0.0000000   0.0000000   0.0000000  |     0.0000000   0.0000000   0.0000000
     0.0000000   0.0000000   0.0000000  |     0.0000000   0.0000000   0.0000000
     0.0000000   0.0000000   0.0000000  |     0.0000000   0.0000000   0.0000000
     0.0000000   0.0000000   0.0000000  |     0.0000000   0.0000000   0.0000000
     0.0000000   0.0000000   0.0000000  |     0.0000000   0.0000000   0.0000000
     0.0000000   0.0000000   0.0000000  |     0.0000000   0.0000000   0.0000000
     0.0000000   0.0000000   0.0000000  |     0.0000000   0.0000000   0.0000000
     0.0000000   0.0000000   0.0000000  |     0.0000000   0.0000000   0.0000000
     0.0000000   0.0000000   0.0000000  |     0.0000000   0.0000000   0.0000000
     0.0000000   0.0000000   0.0000000  |     0.0000000   0.0000000   0.0000000
     0.0000000   0.0000000   0.0000000  |     0.0000000   0.0000000   0.0000000
     0.0000000   0.0000000   0.0000000  |     0.0000000   0.0000000   0.0000000
     0.0000000   0.0000000   0.0000000  |     0.0000000   0.0000000   0.0000000
     0.0000000   0.0000000   0.0000000  |     0.0000000   0.0000000   0.0000000
   znucl:                               |   znucl:
   13.00 33.00                          |   13.00 33.00
  pseudopotential atom type  1:         |  pseudopotential atom type  1:
  pspso   0 pspxc   1                   |  pspso   0 pspxc   1
  pspdat 940714 pspcod    1 zion   3.0  |  pspdat 940714 pspcod    1 zion   3.0
  pseudopotential atom type  2:         |  pseudopotential atom type  2:
  pspso   0 pspxc   1                   |  pspso   0 pspxc   1
  pspdat 940714 pspcod    1 zion   5.0  |  pspdat 940714 pspcod    1 zion   5.0
  xred:                                 |  xred:
     0.0000000   0.0000000   0.0000000  |     0.0000000   0.0000000   0.0000000
     0.2500000   0.2500000   0.2500000  |     0.2500000   0.2500000   0.2500000

--- !WARNING
src_file: m_hdr.F90
src_line: 4595
message: |
    Restart of self-consistent calculation need translated wavefunctions.
...

  Indeed, critical differences between current calculation and
  restart file have been detected in:
        * the number, position, or weight of k-points
        * the format of wavefunctions (istwfk)
================================================================================
-inwffil : will read wavefunctions from disk file tffield_2o_DS1_WFK
 initwf: disk file gives npw= 68 nband= 5 for kpt number= 1

--- !COMMENT
src_file: m_inwffil.F90
src_line: 1961
message: |
    For kpt number 1 disk file has 5 bands
    but input file gave nband= 4.
    This is not fatal. Bands are skipped or filled with random numbers.
...

 initwf: 5 bands have been initialized from disk
 initwf: disk file gives npw= 74 nband= 5 for kpt number= 2

--- !COMMENT
src_file: m_inwffil.F90
src_line: 1961
message: |
    For kpt number 2 disk file has 5 bands
    but input file gave nband= 4.
    This is not fatal. Bands are skipped or filled with random numbers.
...

 initwf: 5 bands have been initialized from disk
 initwf: disk file gives npw= 74 nband= 5 for kpt number= 3

--- !COMMENT
src_file: m_inwffil.F90
src_line: 1961
message: |
    For kpt number 3 disk file has 5 bands
    but input file gave nband= 4.
    This is not fatal. Bands are skipped or filled with random numbers.
...

 initwf: 5 bands have been initialized from disk
 initwf: disk file gives npw= 73 nband= 5 for kpt number= 4

--- !COMMENT
src_file: m_inwffil.F90
src_line: 1961
message: |
    For kpt number 4 disk file has 5 bands
    but input file gave nband= 4.
    This is not fatal. Bands are skipped or filled with random numbers.
...

 initwf: 5 bands have been initialized from disk
 initwf: disk file gives npw= 74 nband= 5 for kpt number= 5

--- !COMMENT
src_file: m_inwffil.F90
src_line: 1961
message: |
    For kpt number 5 disk file has 5 bands
    but input file gave nband= 4.
    This is not fatal. Bands are skipped or filled with random numbers.
...

 initwf: 5 bands have been initialized from disk
 initwf: disk file gives npw= 75 nband= 5 for kpt number= 6

--- !COMMENT
src_file: m_inwffil.F90
src_line: 1961
message: |
    For kpt number 6 disk file has 5 bands
    but input file gave nband= 4.
    This is not fatal. Bands are skipped or filled with random numbers.
...

 initwf: 5 bands have been initialized from disk
 initwf: disk file gives npw= 76 nband= 5 for kpt number= 7

--- !COMMENT
src_file: m_inwffil.F90
src_line: 1961
message: |
    For kpt number 7 disk file has 5 bands
    but input file gave nband= 4.
    This is not fatal. Bands are skipped or filled with random numbers.
...

 initwf: 5 bands have been initialized from disk
 initwf: disk file gives npw= 77 nband= 5 for kpt number= 8

--- !COMMENT
src_file: m_inwffil.F90
src_line: 1961
message: |
    For kpt number 8 disk file has 5 bands
    but input file gave nband= 4.
    This is not fatal. Bands are skipped or filled with random numbers.
...

 initwf: 5 bands have been initialized from disk
 initwf: disk file gives npw= 77 nband= 5 for kpt number= 9

--- !COMMENT
src_file: m_inwffil.F90
src_line: 1961
message: |
    For kpt number 9 disk file has 5 bands
    but input file gave nband= 4.
    This is not fatal. Bands are skipped or filled with random numbers.
...

 initwf: 5 bands have been initialized from disk
 initwf: disk file gives npw= 75 nband= 5 for kpt number= 10

--- !COMMENT
src_file: m_inwffil.F90
src_line: 1961
message: |
    For kpt number 10 disk file has 5 bands
    but input file gave nband= 4.
    This is not fatal. Bands are skipped or filled with random numbers.
...

 initwf: 5 bands have been initialized from disk
 initwf: disk file gives npw= 74 nband= 5 for kpt number= 11

--- !COMMENT
src_file: m_inwffil.F90
src_line: 1961
message: |
    For kpt number 11 disk file has 5 bands
    but input file gave nband= 4.
    This is not fatal. Bands are skipped or filled with random numbers.
...

 initwf: 5 bands have been initialized from disk
 initwf: disk file gives npw= 79 nband= 5 for kpt number= 12

--- !COMMENT
src_file: m_inwffil.F90
src_line: 1961
message: |
    For kpt number 12 disk file has 5 bands
    but input file gave nband= 4.
    This is not fatal. Bands are skipped or filled with random numbers.
...

 initwf: 5 bands have been initialized from disk
 initwf: disk file gives npw= 77 nband= 5 for kpt number= 13

--- !COMMENT
src_file: m_inwffil.F90
src_line: 1961
message: |
    For kpt number 13 disk file has 5 bands
    but input file gave nband= 4.
    This is not fatal. Bands are skipped or filled with random numbers.
...

 initwf: 5 bands have been initialized from disk
 initwf: disk file gives npw= 78 nband= 5 for kpt number= 14

--- !COMMENT
src_file: m_inwffil.F90
src_line: 1961
message: |
    For kpt number 14 disk file has 5 bands
    but input file gave nband= 4.
    This is not fatal. Bands are skipped or filled with random numbers.
...

 initwf: 5 bands have been initialized from disk
 initwf: disk file gives npw= 79 nband= 5 for kpt number= 15

--- !COMMENT
src_file: m_inwffil.F90
src_line: 1961
message: |
    For kpt number 15 disk file has 5 bands
    but input file gave nband= 4.
    This is not fatal. Bands are skipped or filled with random numbers.
...

 initwf: 5 bands have been initialized from disk
 initwf: disk file gives npw= 80 nband= 5 for kpt number= 16

--- !COMMENT
src_file: m_inwffil.F90
src_line: 1961
message: |
    For kpt number 16 disk file has 5 bands
    but input file gave nband= 4.
    This is not fatal. Bands are skipped or filled with random numbers.
...

 initwf: 5 bands have been initialized from disk
 initwf: disk file gives npw= 77 nband= 5 for kpt number= 17

--- !COMMENT
src_file: m_inwffil.F90
src_line: 1961
message: |
    For kpt number 17 disk file has 5 bands
    but input file gave nband= 4.
    This is not fatal. Bands are skipped or filled with random numbers.
...

 initwf: 5 bands have been initialized from disk
 initwf: disk file gives npw= 77 nband= 5 for kpt number= 18

--- !COMMENT
src_file: m_inwffil.F90
src_line: 1961
message: |
    For kpt number 18 disk file has 5 bands
    but input file gave nband= 4.
    This is not fatal. Bands are skipped or filled with random numbers.
...

 initwf: 5 bands have been initialized from disk
 initwf: disk file gives npw= 69 nband= 5 for kpt number= 19

--- !COMMENT
src_file: m_inwffil.F90
src_line: 1961
message: |
    For kpt number 19 disk file has 5 bands
    but input file gave nband= 4.
    This is not fatal. Bands are skipped or filled with random numbers.
...

 initwf: 5 bands have been initialized from disk
 initwf: disk file gives npw= 75 nband= 5 for kpt number= 20

--- !COMMENT
src_file: m_inwffil.F90
src_line: 1961
message: |
    For kpt number 20 disk file has 5 bands
    but input file gave nband= 4.
    This is not fatal. Bands are skipped or filled with random numbers.
...

 initwf: 5 bands have been initialized from disk
 initwf: disk file gives npw= 75 nband= 5 for kpt number= 21

--- !COMMENT
src_file: m_inwffil.F90
src_line: 1961
message: |
    For kpt number 21 disk file has 5 bands
    but input file gave nband= 4.
    This is not fatal. Bands are skipped or filled with random numbers.
...

 initwf: 5 bands have been initialized from disk
 initwf: disk file gives npw= 74 nband= 5 for kpt number= 22

--- !COMMENT
src_file: m_inwffil.F90
src_line: 1961
message: |
    For kpt number 22 disk file has 5 bands
    but input file gave nband= 4.
    This is not fatal. Bands are skipped or filled with random numbers.
...

 initwf: 5 bands have been initialized from disk
 initwf: disk file gives npw= 75 nband= 5 for kpt number= 23

--- !COMMENT
src_file: m_inwffil.F90
src_line: 1961
message: |
    For kpt number 23 disk file has 5 bands
    but input file gave nband= 4.
    This is not fatal. Bands are skipped or filled with random numbers.
...

 initwf: 5 bands have been initialized from disk
 initwf: disk file gives npw= 77 nband= 5 for kpt number= 24

--- !COMMENT
src_file: m_inwffil.F90
src_line: 1961
message: |
    For kpt number 24 disk file has 5 bands
    but input file gave nband= 4.
    This is not fatal. Bands are skipped or filled with random numbers.
...

 initwf: 5 bands have been initialized from disk
 initwf: disk file gives npw= 76 nband= 5 for kpt number= 25

--- !COMMENT
src_file: m_inwffil.F90
src_line: 1961
message: |
    For kpt number 25 disk file has 5 bands
    but input file gave nband= 4.
    This is not fatal. Bands are skipped or filled with random numbers.
...

 initwf: 5 bands have been initialized from disk
- newkpt: read input wf with ikpt,npw=   1      68, make ikpt,npw=   1      68
- newkpt: read input wf with ikpt,npw=   1      68, make ikpt,npw=   2      68
- newkpt: read input wf with ikpt,npw=   1      68, make ikpt,npw=   3      68
- newkpt: read input wf with ikpt,npw=   2      74, make ikpt,npw=   4      74
- newkpt: read input wf with ikpt,npw=   3      74, make ikpt,npw=   5      74
- newkpt: read input wf with ikpt,npw=   4      73, make ikpt,npw=   6      73
- newkpt: read input wf with ikpt,npw=   3      74, make ikpt,npw=   7      74
- newkpt: read input wf with ikpt,npw=   3      74, make ikpt,npw=   8      74
- newkpt: read input wf with ikpt,npw=   4      73, make ikpt,npw=   9      73
- newkpt: read input wf with ikpt,npw=   2      74, make ikpt,npw=  10      74
- newkpt: read input wf with ikpt,npw=   4      73, make ikpt,npw=  11      73
- newkpt: read input wf with ikpt,npw=   4      73, make ikpt,npw=  12      73
- newkpt: read input wf with ikpt,npw=   2      74, make ikpt,npw=  13      74
- newkpt: read input wf with ikpt,npw=   5      74, make ikpt,npw=  14      74
- newkpt: read input wf with ikpt,npw=   6      75, make ikpt,npw=  15      75
- newkpt: read input wf with ikpt,npw=   7      76, make ikpt,npw=  16      76
- newkpt: read input wf with ikpt,npw=   8      77, make ikpt,npw=  17      77
- newkpt: read input wf with ikpt,npw=   9      77, make ikpt,npw=  18      77
- newkpt: read input wf with ikpt,npw=  10      75, make ikpt,npw=  19      75
- newkpt: read input wf with ikpt,npw=   8      77, make ikpt,npw=  20      77
- newkpt: read input wf with ikpt,npw=   8      77, make ikpt,npw=  21      77
- newkpt: read input wf with ikpt,npw=   9      77, make ikpt,npw=  22      77
- newkpt: read input wf with ikpt,npw=  10      75, make ikpt,npw=  23      75
- newkpt: read input wf with ikpt,npw=   6      75, make ikpt,npw=  24      75
- newkpt: read input wf with ikpt,npw=   9      77, make ikpt,npw=  25      77
- newkpt: read input wf with ikpt,npw=   9      77, make ikpt,npw=  26      77
- newkpt: read input wf with ikpt,npw=   6      75, make ikpt,npw=  27      75
- newkpt: read input wf with ikpt,npw=   7      76, make ikpt,npw=  28      76
- newkpt: read input wf with ikpt,npw=   5      74, make ikpt,npw=  29      74
- newkpt: read input wf with ikpt,npw=   7      76, make ikpt,npw=  30      76
- newkpt: read input wf with ikpt,npw=  10      75, make ikpt,npw=  31      75
- newkpt: read input wf with ikpt,npw=  10      75, make ikpt,npw=  32      75
- newkpt: read input wf with ikpt,npw=   7      76, make ikpt,npw=  33      76
- newkpt: read input wf with ikpt,npw=   5      74, make ikpt,npw=  34      74
- newkpt: read input wf with ikpt,npw=  11      74, make ikpt,npw=  35      74
- newkpt: read input wf with ikpt,npw=  12      79, make ikpt,npw=  36      79
- newkpt: read input wf with ikpt,npw=   7      76, make ikpt,npw=  37      76
- newkpt: read input wf with ikpt,npw=  13      77, make ikpt,npw=  38      77
- newkpt: read input wf with ikpt,npw=  14      78, make ikpt,npw=  39      78
- newkpt: read input wf with ikpt,npw=  14      78, make ikpt,npw=  40      78
- newkpt: read input wf with ikpt,npw=  15      79, make ikpt,npw=  41      79
- newkpt: read input wf with ikpt,npw=  16      80, make ikpt,npw=  42      80
- newkpt: read input wf with ikpt,npw=  17      77, make ikpt,npw=  43      77
- newkpt: read input wf with ikpt,npw=  18      77, make ikpt,npw=  44      77
- newkpt: read input wf with ikpt,npw=  15      79, make ikpt,npw=  45      79
- newkpt: read input wf with ikpt,npw=  15      79, make ikpt,npw=  46      79
- newkpt: read input wf with ikpt,npw=  16      80, make ikpt,npw=  47      80
- newkpt: read input wf with ikpt,npw=  17      77, make ikpt,npw=  48      77
- newkpt: read input wf with ikpt,npw=  18      77, make ikpt,npw=  49      77
- newkpt: read input wf with ikpt,npw=  13      77, make ikpt,npw=  50      77
- newkpt : prtvol=0 or 1, do not print more k-points.
 About to read data(r) from: tffield_2o_DS1_DEN

================================================================================

          - hdr_check: checking restart file header for consistency -


        current calculation                         restart file
        -------------------                         ------------

  calculation expects a density         |  input file contains a density
. ABINIT  code version 8.10.3           |  ABINIT  code version 8.10.3
. date 20191108 bantot 1728 natom    2  |  date 20191108 bantot  140 natom    2
  nkpt 432 nsym 24 ngfft  12,  12,  12  |  nkpt  28 nsym 24 ngfft  12,  12,  12
  ntypat  2 ecut_eff   3.0870000        |  ntypat  2 ecut_eff   3.0870000
  usepaw  0                             |  usepaw  0
  usewvl  0                             |  usewvl  0
  rprimd:                               |  rprimd:
     0.0000000   5.2650000   5.2650000  |     0.0000000   5.2650000   5.2650000
     5.2650000   0.0000000   5.2650000  |     5.2650000   0.0000000   5.2650000
     5.2650000   5.2650000   0.0000000  |     5.2650000   5.2650000   0.0000000
  symafm:                               |  symafm:
    1  1  1  1  1  1  1  1  1  1  1  1  |    1  1  1  1  1  1  1  1  1  1  1  1
    1  1  1  1  1  1  1  1  1  1  1  1  |    1  1  1  1  1  1  1  1  1  1  1  1
  symrel:                               |  symrel:
    1  0  0  0  1  0  0  0  1           |    1  0  0  0  1  0  0  0  1
    0 -1  1  0 -1  0  1 -1  0           |    0 -1  1  0 -1  0  1 -1  0
   -1  0  0 -1  0  1 -1  1  0           |   -1  0  0 -1  0  1 -1  1  0
    0  1 -1  1  0 -1  0  0 -1           |    0  1 -1  1  0 -1  0  0 -1
   -1  0  0 -1  1  0 -1  0  1           |   -1  0  0 -1  1  0 -1  0  1
    0 -1  1  1 -1  0  0 -1  0           |    0 -1  1  1 -1  0  0 -1  0
    1  0  0  0  0  1  0  1  0           |    1  0  0  0  0  1  0  1  0
    0  1 -1  0  0 -1  1  0 -1           |    0  1 -1  0  0 -1  1  0 -1
   -1  0  1 -1  1  0 -1  0  0           |   -1  0  1 -1  1  0 -1  0  0
    0 -1  0  1 -1  0  0 -1  1           |    0 -1  0  1 -1  0  0 -1  1
    1  0 -1  0  0 -1  0  1 -1           |    1  0 -1  0  0 -1  0  1 -1
    0  1  0  0  0  1  1  0  0           |    0  1  0  0  0  1  1  0  0
    1  0 -1  0  1 -1  0  0 -1           |    1  0 -1  0  1 -1  0  0 -1
    0 -1  0  0 -1  1  1 -1  0           |    0 -1  0  0 -1  1  1 -1  0
   -1  0  1 -1  0  0 -1  1  0           |   -1  0  1 -1  0  0 -1  1  0
    0  1  0  1  0  0  0  0  1           |    0  1  0  1  0  0  0  0  1
    0  0 -1  0  1 -1  1  0 -1           |    0  0 -1  0  1 -1  1  0 -1
    1 -1  0  0 -1  1  0 -1  0           |    1 -1  0  0 -1  1  0 -1  0
    0  0  1  1  0  0  0  1  0           |    0  0  1  1  0  0  0  1  0
   -1  1  0 -1  0  0 -1  0  1           |   -1  1  0 -1  0  0 -1  0  1
    0  0  1  0  1  0  1  0  0           |    0  0  1  0  1  0  1  0  0
    1 -1  0  0 -1  0  0 -1  1           |    1 -1  0  0 -1  0  0 -1  1
    0  0 -1  1  0 -1  0  1 -1           |    0  0 -1  1  0 -1  0  1 -1
   -1  1  0 -1  0  1 -1  0  0           |   -1  1  0 -1  0  1 -1  0  0
  typat:                                |  typat:
    1  2                                |    1  2
  so_psp  :                             |  so_psp  :
    1  1                                |    1  1

--- !WARNING
src_file: m_hdr.F90
src_line: 4300
message: |
    input kptopt= 2  /= disk file kptopt= 1
...

  tnons:                                |  tnons:
     0.0000000   0.0000000   0.0000000  |     0.0000000   0.0000000   0.0000000
     0.0000000   0.0000000   0.0000000  |     0.0000000   0.0000000   0.0000000
     0.0000000   0.0000000   0.0000000  |     0.0000000   0.0000000   0.0000000
     0.0000000   0.0000000   0.0000000  |     0.0000000   0.0000000   0.0000000
     0.0000000   0.0000000   0.0000000  |     0.0000000   0.0000000   0.0000000
     0.0000000   0.0000000   0.0000000  |     0.0000000   0.0000000   0.0000000
     0.0000000   0.0000000   0.0000000  |     0.0000000   0.0000000   0.0000000
     0.0000000   0.0000000   0.0000000  |     0.0000000   0.0000000   0.0000000
     0.0000000   0.0000000   0.0000000  |     0.0000000   0.0000000   0.0000000
     0.0000000   0.0000000   0.0000000  |     0.0000000   0.0000000   0.0000000
     0.0000000   0.0000000   0.0000000  |     0.0000000   0.0000000   0.0000000
     0.0000000   0.0000000   0.0000000  |     0.0000000   0.0000000   0.0000000
     0.0000000   0.0000000   0.0000000  |     0.0000000   0.0000000   0.0000000
     0.0000000   0.0000000   0.0000000  |     0.0000000   0.0000000   0.0000000
     0.0000000   0.0000000   0.0000000  |     0.0000000   0.0000000   0.0000000
     0.0000000   0.0000000   0.0000000  |     0.0000000   0.0000000   0.0000000
     0.0000000   0.0000000   0.0000000  |     0.0000000   0.0000000   0.0000000
     0.0000000   0.0000000   0.0000000  |     0.0000000   0.0000000   0.0000000
     0.0000000   0.0000000   0.0000000  |     0.0000000   0.0000000   0.0000000
     0.0000000   0.0000000   0.0000000  |     0.0000000   0.0000000   0.0000000
     0.0000000   0.0000000   0.0000000  |     0.0000000   0.0000000   0.0000000
     0.0000000   0.0000000   0.0000000  |     0.0000000   0.0000000   0.0000000
     0.0000000   0.0000000   0.0000000  |     0.0000000   0.0000000   0.0000000
     0.0000000   0.0000000   0.0000000  |     0.0000000   0.0000000   0.0000000
   znucl:                               |   znucl:
   13.00 33.00                          |   13.00 33.00
  pseudopotential atom type  1:         |  pseudopotential atom type  1:
  pspso   0 pspxc   1                   |  pspso   0 pspxc   1
  pspdat 940714 pspcod    1 zion   3.0  |  pspdat 940714 pspcod    1 zion   3.0
  pseudopotential atom type  2:         |  pseudopotential atom type  2:
  pspso   0 pspxc   1                   |  pspso   0 pspxc   1
  pspdat 940714 pspcod    1 zion   5.0  |  pspdat 940714 pspcod    1 zion   5.0
  xred:                                 |  xred:
     0.0000000   0.0000000   0.0000000  |     0.0000000   0.0000000   0.0000000
     0.2500000   0.2500000   0.2500000  |     0.2500000   0.2500000   0.2500000
 hdr_check:  Density/Potential file is OK for restart of calculation
================================================================================
[...]
                      -8.33333333E-02  3.33333333E-01  0.00000000E+00
                      -1.66666667E-01  4.16666667E-01  0.00000000E+00
                      -2.50000000E-01  5.00000000E-01  0.00000000E+00
                      -1.66666667E-01  5.00000000E-01  8.33333333E-02
                      -3.33333333E-01 -4.16666667E-01  0.00000000E+00
                      -2.50000000E-01 -4.16666667E-01  8.33333333E-02
                      -1.66666667E-01 -4.16666667E-01  1.66666667E-01
                      -8.33333333E-02 -4.16666667E-01  2.50000000E-01
                      -8.33333333E-02  1.66666667E-01  0.00000000E+00
                      -1.66666667E-01  2.50000000E-01  0.00000000E+00
                      -2.50000000E-01  3.33333333E-01  0.00000000E+00
                      -3.33333333E-01  4.16666667E-01  0.00000000E+00
                      -4.16666667E-01  5.00000000E-01  0.00000000E+00
                      -3.33333333E-01  5.00000000E-01  8.33333333E-02
                      -2.50000000E-01  5.00000000E-01  1.66666667E-01
                      -8.33333333E-02  0.00000000E+00  0.00000000E+00
                      -2.50000000E-01  0.00000000E+00  0.00000000E+00
                      -4.16666667E-01  0.00000000E+00  0.00000000E+00
              kpt2    -8.33333333E-02 -1.66666667E-01  0.00000000E+00
                      -1.66666667E-01 -8.33333333E-02  0.00000000E+00
                      -8.33333333E-02 -8.33333333E-02  8.33333333E-02
                      -8.33333333E-02 -3.33333333E-01  0.00000000E+00
                      -1.66666667E-01 -2.50000000E-01  0.00000000E+00
                      -8.33333333E-02 -2.50000000E-01  8.33333333E-02
                      -2.50000000E-01 -1.66666667E-01  0.00000000E+00
                      -1.66666667E-01 -1.66666667E-01  8.33333333E-02
                      -8.33333333E-02 -1.66666667E-01  1.66666667E-01
                      -3.33333333E-01 -8.33333333E-02  0.00000000E+00
                      -2.50000000E-01 -8.33333333E-02  8.33333333E-02
                      -1.66666667E-01 -8.33333333E-02  1.66666667E-01
                      -8.33333333E-02 -8.33333333E-02  2.50000000E-01
                      -8.33333333E-02  5.00000000E-01  0.00000000E+00
                      -1.66666667E-01 -4.16666667E-01  0.00000000E+00
                      -8.33333333E-02 -4.16666667E-01  8.33333333E-02
                      -2.50000000E-01 -3.33333333E-01  0.00000000E+00
                      -1.66666667E-01 -3.33333333E-01  8.33333333E-02
                      -8.33333333E-02 -3.33333333E-01  1.66666667E-01
                      -3.33333333E-01 -2.50000000E-01  0.00000000E+00
                      -2.50000000E-01 -2.50000000E-01  8.33333333E-02
                      -1.66666667E-01 -2.50000000E-01  1.66666667E-01
                      -8.33333333E-02 -2.50000000E-01  2.50000000E-01
                      -4.16666667E-01 -1.66666667E-01  0.00000000E+00
                      -3.33333333E-01 -1.66666667E-01  8.33333333E-02
                      -2.50000000E-01 -1.66666667E-01  1.66666667E-01
                      -1.66666667E-01 -1.66666667E-01  2.50000000E-01
                      -8.33333333E-02 -1.66666667E-01  3.33333333E-01
                       5.00000000E-01 -8.33333333E-02  0.00000000E+00
                      -4.16666667E-01 -8.33333333E-02  8.33333333E-02
                      -3.33333333E-01 -8.33333333E-02  1.66666667E-01
                      -2.50000000E-01 -8.33333333E-02  2.50000000E-01
                      -1.66666667E-01 -8.33333333E-02  3.33333333E-01
                      -8.33333333E-02 -8.33333333E-02  4.16666667E-01
                      -8.33333333E-02  3.33333333E-01  0.00000000E+00
                      -1.66666667E-01  4.16666667E-01  0.00000000E+00
                      -8.33333333E-02  4.16666667E-01  8.33333333E-02
                      -2.50000000E-01  5.00000000E-01  0.00000000E+00
                      -1.66666667E-01  5.00000000E-01  8.33333333E-02
                      -8.33333333E-02  5.00000000E-01  1.66666667E-01
                      -3.33333333E-01 -4.16666667E-01  0.00000000E+00
                      -2.50000000E-01 -4.16666667E-01  8.33333333E-02
                      -1.66666667E-01 -4.16666667E-01  1.66666667E-01
                      -8.33333333E-02 -4.16666667E-01  2.50000000E-01
                      -4.16666667E-01 -3.33333333E-01  0.00000000E+00
                      -3.33333333E-01 -3.33333333E-01  8.33333333E-02
                      -2.50000000E-01 -3.33333333E-01  1.66666667E-01
                      -1.66666667E-01 -3.33333333E-01  2.50000000E-01
                      -8.33333333E-02 -3.33333333E-01  3.33333333E-01
                       5.00000000E-01 -2.50000000E-01  0.00000000E+00
              kpt3    -8.33333333E-02 -1.66666667E-01  0.00000000E+00
                      -1.66666667E-01 -8.33333333E-02  0.00000000E+00
                      -8.33333333E-02 -8.33333333E-02  8.33333333E-02
                      -8.33333333E-02 -3.33333333E-01  0.00000000E+00
                      -1.66666667E-01 -2.50000000E-01  0.00000000E+00
                      -8.33333333E-02 -2.50000000E-01  8.33333333E-02
                      -2.50000000E-01 -1.66666667E-01  0.00000000E+00
                      -1.66666667E-01 -1.66666667E-01  8.33333333E-02
                      -8.33333333E-02 -1.66666667E-01  1.66666667E-01
                      -3.33333333E-01 -8.33333333E-02  0.00000000E+00
                      -2.50000000E-01 -8.33333333E-02  8.33333333E-02
                      -1.66666667E-01 -8.33333333E-02  1.66666667E-01
                      -8.33333333E-02 -8.33333333E-02  2.50000000E-01
                      -8.33333333E-02  5.00000000E-01  0.00000000E+00
                      -1.66666667E-01 -4.16666667E-01  0.00000000E+00
                      -8.33333333E-02 -4.16666667E-01  8.33333333E-02
                      -2.50000000E-01 -3.33333333E-01  0.00000000E+00
                      -1.66666667E-01 -3.33333333E-01  8.33333333E-02
                      -8.33333333E-02 -3.33333333E-01  1.66666667E-01
                      -3.33333333E-01 -2.50000000E-01  0.00000000E+00
                      -2.50000000E-01 -2.50000000E-01  8.33333333E-02
                      -1.66666667E-01 -2.50000000E-01  1.66666667E-01
                      -8.33333333E-02 -2.50000000E-01  2.50000000E-01
                      -4.16666667E-01 -1.66666667E-01  0.00000000E+00
                      -3.33333333E-01 -1.66666667E-01  8.33333333E-02
                      -2.50000000E-01 -1.66666667E-01  1.66666667E-01
                      -1.66666667E-01 -1.66666667E-01  2.50000000E-01
                      -8.33333333E-02 -1.66666667E-01  3.33333333E-01
                       5.00000000E-01 -8.33333333E-02  0.00000000E+00
                      -4.16666667E-01 -8.33333333E-02  8.33333333E-02
                      -3.33333333E-01 -8.33333333E-02  1.66666667E-01
                      -2.50000000E-01 -8.33333333E-02  2.50000000E-01
                      -1.66666667E-01 -8.33333333E-02  3.33333333E-01
                      -8.33333333E-02 -8.33333333E-02  4.16666667E-01
                      -8.33333333E-02  3.33333333E-01  0.00000000E+00
                      -1.66666667E-01  4.16666667E-01  0.00000000E+00
                      -8.33333333E-02  4.16666667E-01  8.33333333E-02
                      -2.50000000E-01  5.00000000E-01  0.00000000E+00
                      -1.66666667E-01  5.00000000E-01  8.33333333E-02
                      -8.33333333E-02  5.00000000E-01  1.66666667E-01
                      -3.33333333E-01 -4.16666667E-01  0.00000000E+00
                      -2.50000000E-01 -4.16666667E-01  8.33333333E-02
                      -1.66666667E-01 -4.16666667E-01  1.66666667E-01
                      -8.33333333E-02 -4.16666667E-01  2.50000000E-01
                      -4.16666667E-01 -3.33333333E-01  0.00000000E+00
                      -3.33333333E-01 -3.33333333E-01  8.33333333E-02
                      -2.50000000E-01 -3.33333333E-01  1.66666667E-01
                      -1.66666667E-01 -3.33333333E-01  2.50000000E-01
                      -8.33333333E-02 -3.33333333E-01  3.33333333E-01
                       5.00000000E-01 -2.50000000E-01  0.00000000E+00
                       outvar_i_n : Printing only first  50 k-points.
           kptopt1          1
           kptopt2          2
           kptopt3          2
         kptrlatt        6   -6    6     -6    6    6     -6   -6    6
          kptrlen      6.31800000E+01
P           mkmem1          7
P           mkmem2        108
P           mkmem3        108
P          mkqmem1          7
P          mkqmem2        108
P          mkqmem3        108
P          mk1mem1          7
P          mk1mem2        108
P          mk1mem3        108
            natom           2
            nband1          5
            nband2          4
            nband3          4
           nbdbuf1          0
           nbdbuf2          2
           nbdbuf3          0
           ndtset           3
            ngfft          12      12      12
             nkpt1         28
             nkpt2        432
             nkpt3        432
            nstep         100
             nsym          24
           ntypat           2
              occ1     2.000000  2.000000  2.000000  2.000000  0.000000
              occ3     2.000000  2.000000  2.000000  2.000000
        optdriver1          0
        optdriver2          0
        optdriver3          1
          rfatpol1          1       1
          rfatpol2          1       1
          rfatpol3          1       2
            rfdir1          0       0       0
            rfdir2          1       1       1
            rfdir3          1       1       1
           rfphon1          0
           rfphon2          0
           rfphon3          1
           rfstrs1          0
           rfstrs2          0
           rfstrs3          3
            rprim      0.0000000000E+00  5.0000000000E-01  5.0000000000E-01
                       5.0000000000E-01  0.0000000000E+00  5.0000000000E-01
                       5.0000000000E-01  5.0000000000E-01  0.0000000000E+00
           shiftk      5.00000000E-01  5.00000000E-01  5.00000000E-01
          spgroup         216
           strten1    -3.1110070758E-06 -3.1110070758E-06 -3.1110070758E-06
                       0.0000000000E+00  0.0000000000E+00  0.0000000000E+00
           strten3     0.0000000000E+00  0.0000000000E+00  0.0000000000E+00
                       0.0000000000E+00  0.0000000000E+00  0.0000000000E+00
           symrel      1  0  0   0  1  0   0  0  1       0 -1  1   0 -1  0   1 -1  0
                      -1  0  0  -1  0  1  -1  1  0       0  1 -1   1  0 -1   0  0 -1
                      -1  0  0  -1  1  0  -1  0  1       0 -1  1   1 -1  0   0 -1  0
                       1  0  0   0  0  1   0  1  0       0  1 -1   0  0 -1   1  0 -1
                      -1  0  1  -1  1  0  -1  0  0       0 -1  0   1 -1  0   0 -1  1
                       1  0 -1   0  0 -1   0  1 -1       0  1  0   0  0  1   1  0  0
                       1  0 -1   0  1 -1   0  0 -1       0 -1  0   0 -1  1   1 -1  0
                      -1  0  1  -1  0  0  -1  1  0       0  1  0   1  0  0   0  0  1
                       0  0 -1   0  1 -1   1  0 -1       1 -1  0   0 -1  1   0 -1  0
                       0  0  1   1  0  0   0  1  0      -1  1  0  -1  0  0  -1  0  1
                       0  0  1   0  1  0   1  0  0       1 -1  0   0 -1  0   0 -1  1
                       0  0 -1   1  0 -1   0  1 -1      -1  1  0  -1  0  1  -1  0  0
           toldfe1     1.00000000E-12 Hartree
           toldfe2     0.00000000E+00 Hartree
           toldfe3     1.00000000E-12 Hartree
           tolwfr1     0.00000000E+00
           tolwfr2     1.00000000E-22
           tolwfr3     0.00000000E+00
            typat      1  2
              wtk1       0.02778    0.02778    0.02778    0.05556    0.02778    0.02778
                         0.05556    0.02778    0.05556    0.05556    0.02778    0.02778
                         0.02778    0.05556    0.02778    0.05556    0.05556    0.05556
                         0.02778    0.02778    0.02778    0.02778    0.02778    0.05556
                         0.05556    0.00926    0.00926    0.00926
              wtk2       0.00231    0.00231    0.00231    0.00231    0.00231    0.00231
                         0.00231    0.00231    0.00231    0.00231    0.00231    0.00231
                         0.00231    0.00231    0.00231    0.00231    0.00231    0.00231
                         0.00231    0.00231    0.00231    0.00231    0.00231    0.00231
                         0.00231    0.00231    0.00231    0.00231    0.00231    0.00231
                         0.00231    0.00231    0.00231    0.00231    0.00231    0.00231
                         0.00231    0.00231    0.00231    0.00231    0.00231    0.00231
                         0.00231    0.00231    0.00231    0.00231    0.00231    0.00231
                         0.00231    0.00231
              wtk3       0.00231    0.00231    0.00231    0.00231    0.00231    0.00231
                         0.00231    0.00231    0.00231    0.00231    0.00231    0.00231
                         0.00231    0.00231    0.00231    0.00231    0.00231    0.00231
                         0.00231    0.00231    0.00231    0.00231    0.00231    0.00231
                         0.00231    0.00231    0.00231    0.00231    0.00231    0.00231
                         0.00231    0.00231    0.00231    0.00231    0.00231    0.00231
                         0.00231    0.00231    0.00231    0.00231    0.00231    0.00231
                         0.00231    0.00231    0.00231    0.00231    0.00231    0.00231
                         0.00231    0.00231
                       outvars : Printing only first  50 k-points.
           xangst      0.0000000000E+00  0.0000000000E+00  0.0000000000E+00
                       1.3930590016E+00  1.3930590016E+00  1.3930590016E+00
            xcart      0.0000000000E+00  0.0000000000E+00  0.0000000000E+00
                       2.6325000000E+00  2.6325000000E+00  2.6325000000E+00
             xred      0.0000000000E+00  0.0000000000E+00  0.0000000000E+00
                       2.5000000000E-01  2.5000000000E-01  2.5000000000E-01
            znucl       13.00000   33.00000

================================================================================
  

================================================================================

 Suggested references for the acknowledgment of ABINIT usage.

 The users of ABINIT have little formal obligations with respect to the ABINIT group
 (those specified in the GNU General Public License, http://www.gnu.org/copyleft/gpl.txt).
 However, it is common practice in the scientific literature,
 to acknowledge the efforts of people that have made the research possible.
 In this spirit, please find below suggested citations of work written by ABINIT developers,
 corresponding to implementations inside of ABINIT that you have used in the present run.
 Note also that it will be of great value to readers of publications presenting these results,
 to read papers enabling them to understand the theoretical formalism and details
 of the ABINIT implementation.
 For information on why they are suggested, see also https://docs.abinit.org/theory/acknowledgments.
-
- [1] Metric tensor formulation of strain in density-functional perturbation theory, 
- D. R. Hamann, X. Wu, K. M. Rabe, and D. Vanderbilt, Phys. Rev. B71, 035117 (2005).
- Comment : Non-vanishing rfstrs. Strong suggestion to cite this paper in your publications.
- DOI and bibtex : see https://docs.abinit.org/theory/bibliography/#hamann2005
-
- [2] Recent developments in the ABINIT software package.
- Computer Phys. Comm. 205, 106 (2016).
- X.Gonze, F.Jollet, F.Abreu Araujo, D.Adams, B.Amadon, T.Applencourt,
- C.Audouze, J.-M.Beuken, J.Bieder, A.Bokhanchuk, E.Bousquet, F.Bruneval
- D.Caliste, M.Cote, F.Dahm, F.Da Pieve, M.Delaveau, M.Di Gennaro,
- B.Dorado, C.Espejo, G.Geneste, L.Genovese, A.Gerossier, M.Giantomassi,
- Y.Gillet, D.R.Hamann, L.He, G.Jomard, J.Laflamme Janssen, S.Le Roux,
- A.Levitt, A.Lherbier, F.Liu, I.Lukacevic, A.Martin, C.Martins,
- M.J.T.Oliveira, S.Ponce, Y.Pouillon, T.Rangel, G.-M.Rignanese,
- A.H.Romero, B.Rousseau, O.Rubel, A.A.Shukri, M.Stankovski, M.Torrent,
- M.J.Van Setten, B.Van Troeye, M.J.Verstraete, D.Waroquier, J.Wiktor,
- B.Xu, A.Zhou, J.W.Zwanziger.
- Comment : the fourth generic paper describing the ABINIT project.
- Note that a version of this paper, that is not formatted for Computer Phys. Comm. 
- is available at https://www.abinit.org/about/ABINIT16.pdf .
- The licence allows the authors to put it on the Web.
- DOI and bibtex : see https://docs.abinit.org/theory/bibliography/#gonze2016
-
- [3] First-principles responses of solids to atomic displacements and homogeneous electric fields:,
- implementation of a conjugate-gradient algorithm. X. Gonze, Phys. Rev. B55, 10337 (1997).
- Comment : Non-vanishing rfphon and/or rfelfd, in the norm-conserving case.
- DOI and bibtex : see https://docs.abinit.org/theory/bibliography/#gonze1997
-
- [4] Dynamical matrices, Born effective charges, dielectric permittivity tensors, and ,
- interatomic force constants from density-functional perturbation theory,
- X. Gonze and C. Lee, Phys. Rev. B55, 10355 (1997).
- Comment : Non-vanishing rfphon and/or rfelfd, in the norm-conserving case.
- DOI and bibtex : see https://docs.abinit.org/theory/bibliography/#gonze1997a
-
- [5] ABINIT : First-principles approach of materials and nanosystem properties.
- Computer Phys. Comm. 180, 2582-2615 (2009).
- X. Gonze, B. Amadon, P.-M. Anglade, J.-M. Beuken, F. Bottin, P. Boulanger, F. Bruneval,
- D. Caliste, R. Caracas, M. Cote, T. Deutsch, L. Genovese, Ph. Ghosez, M. Giantomassi
- S. Goedecker, D.R. Hamann, P. Hermet, F. Jollet, G. Jomard, S. Leroux, M. Mancini, S. Mazevet,
- M.J.T. Oliveira, G. Onida, Y. Pouillon, T. Rangel, G.-M. Rignanese, D. Sangalli, R. Shaltaf,
- M. Torrent, M.J. Verstraete, G. Zerah, J.W. Zwanziger
- Comment : the third generic paper describing the ABINIT project.
- Note that a version of this paper, that is not formatted for Computer Phys. Comm. 
- is available at https://www.abinit.org/about/ABINIT_CPC_v10.pdf .
- The licence allows the authors to put it on the Web.
- DOI and bibtex : see https://docs.abinit.org/theory/bibliography/#gonze2009
-
- [6] A brief introduction to the ABINIT software package.
- Z. Kristallogr. 220, 558-562 (2005).
- X. Gonze, G.-M. Rignanese, M. Verstraete, J.-M. Beuken, Y. Pouillon, R. Caracas, F. Jollet,
- M. Torrent, G. Zerah, M. Mikami, Ph. Ghosez, M. Veithen, J.-Y. Raty, V. Olevano, F. Bruneval,
- L. Reining, R. Godby, G. Onida, D.R. Hamann, and D.C. Allan.
- Comment : the second generic paper describing the ABINIT project. Note that this paper
- should be cited especially if you are using the GW part of ABINIT, as several authors
- of this part are not in the list of authors of the first or third paper.
- The .pdf of the latter paper is available at https://www.abinit.org/about/zfk_0505-06_558-562.pdf.
- Note that it should not redistributed (Copyright by Oldenburg Wissenshaftverlag,
- the licence allows the authors to put it on the Web).
- DOI and bibtex : see https://docs.abinit.org/theory/bibliography/#gonze2005
  Asked to delete not existent file: tffield_2_STATUS
 Proc.   0 individual time (sec): cpu=          7.6  wall=          7.8

 Calculation completed.
.Delivered   0 WARNINGs and   0 COMMENTs to log file.

--- !FinalSummary
program: abinit
version: 8.10.3
start_datetime: Fri Nov 08 12:25:02 2019
end_datetime: Fri Nov 08 12:25:10 2019
overall_cpu_time:          30.6
overall_wall_time:          31.0
exit_requested_by_user: no 
timelimit: 0
pseudos: 
    Al  : a932766b26e386f2164c640715a809d6
    As  : 56f075499613b4e8e69cc77bd15edc6d
usepaw: 0
mpi_procs: 4
omp_threads: 1
num_warnings: 0
num_comments: 0
...
