--------------------------------------------------------------------------
[[3547,1],0]: A high-performance Open MPI point-to-point messaging module
was unable to find any relevant network interfaces:

Module: OpenFabrics (openib)
  Host: abipy

Another transport will be used instead, although this may result in
lower performance.
--------------------------------------------------------------------------
  ABINIT 8.10.3
  
  Give name for formatted input file: 
telast_1.in
  Give name for formatted output file:
telast_1.out
  Give root name for generic input files:
telast_1i
  Give root name for generic output files:
telast_1o
  Give root name for generic temporary files:
telast_1

.Version 8.10.3 of ABINIT 
.(MPI version, prepared for a x86_64_linux_gnu5.4 computer) 

.Copyright (C) 1998-2018 ABINIT group . 
 ABINIT comes with ABSOLUTELY NO WARRANTY.
 It is free software, and you are welcome to redistribute it
 under certain conditions (GNU General Public License,
 see ~abinit/COPYING or http://www.gnu.org/copyleft/gpl.txt).

 ABINIT is a project of the Universite Catholique de Louvain,
 Corning Inc. and other collaborators, see ~abinit/doc/developers/contributors.txt .
 Please read https://docs.abinit.org/theory/acknowledgments for suggested
 acknowledgments of the ABINIT effort.
 For more information, see https://www.abinit.org .

.Starting date : Mon  4 Nov 2019.
- ( at 12h12 )
  

 ++++++++++++++++++++++++++++++++++++++++++++++++++++++++++++++++++++++++++++++

 === Build Information === 
  Version       : 8.10.3
  Build target  : x86_64_linux_gnu5.4
  Build date    : 20191016

 === Compiler Suite === 
  C compiler       : gnu5.4
  C++ compiler     : gnu5.4
  Fortran compiler : gnu5.4
  CFLAGS           :  -g -O2 -mtune=native -march=native
  CXXFLAGS         :  -g -O2 -mtune=native -march=native
  FCFLAGS          :  -g -ffree-line-length-none  -fopenmp
  FC_LDFLAGS       : 

 === Optimizations === 
  Debug level        : basic
  Optimization level : standard
  Architecture       : unknown_unknown

 === Multicore === 
  Parallel build : yes
  Parallel I/O   : yes
  openMP support : yes
  GPU support    : no

 === Connectors / Fallbacks === 
  Connectors on : yes
  Fallbacks on  : yes
  DFT flavor    : none
  FFT flavor    : fftw3
  LINALG flavor : atlas
  MATH flavor   : none
  TIMER flavor  : abinit
  TRIO flavor   : netcdf

 === Experimental features === 
  Bindings            : @enable_bindings@
  Exports             : no
  GW double-precision : no

 ++++++++++++++++++++++++++++++++++++++++++++++++++++++++++++++++++++++++++++++


 ++++++++++++++++++++++++++++++++++++++++++++++++++++++++++++++++++++++++++++++
 Default optimizations:
   -O2 -mtune=native -march=native


 Optimizations for 43_ptgroups:
   -O0


 ++++++++++++++++++++++++++++++++++++++++++++++++++++++++++++++++++++++++++++++


 ++++++++++++++++++++++++++++++++++++++++++++++++++++++++++++++++++++++++++++++
 CPP options activated during the build:

                    CC_GNU                   CXX_GNU                    FC_GNU
 
 HAVE_FC_ALLOCATABLE_DT...             HAVE_FC_ASYNC         HAVE_FC_BACKTRACE
 
  HAVE_FC_COMMAND_ARGUMENT      HAVE_FC_COMMAND_LINE        HAVE_FC_CONTIGUOUS
 
           HAVE_FC_CPUTIME              HAVE_FC_EXIT             HAVE_FC_FLUSH
 
             HAVE_FC_GAMMA            HAVE_FC_GETENV   HAVE_FC_IEEE_EXCEPTIONS
 
          HAVE_FC_INT_QUAD             HAVE_FC_IOMSG     HAVE_FC_ISO_C_BINDING
 
  HAVE_FC_ISO_FORTRAN_2008        HAVE_FC_LONG_LINES        HAVE_FC_MOVE_ALLOC
 
           HAVE_FC_PRIVATE         HAVE_FC_PROTECTED         HAVE_FC_STREAM_IO
 
            HAVE_FC_SYSTEM                  HAVE_FFT            HAVE_FFT_FFTW3
 
              HAVE_FFT_MPI           HAVE_FFT_SERIAL          HAVE_FORTRAN2003
 
        HAVE_LIBPAW_ABINIT      HAVE_LIBTETRA_ABINIT               HAVE_LINALG
 
        HAVE_LINALG_SERIAL                  HAVE_MPI                 HAVE_MPI2
 
       HAVE_MPI_IALLREDUCE        HAVE_MPI_IALLTOALL       HAVE_MPI_IALLTOALLV
 
        HAVE_MPI_INTEGER16               HAVE_MPI_IO HAVE_MPI_TYPE_CREATE_S...
 
               HAVE_NETCDF           HAVE_NETCDF_MPI         HAVE_OMP_COLLAPSE
 
               HAVE_OPENMP             HAVE_OS_LINUX         HAVE_TIMER_ABINIT
 
              USE_MACROAVE                                                      
 ++++++++++++++++++++++++++++++++++++++++++++++++++++++++++++++++++++++++++++++

- input  file    -> telast_1.in
- output file    -> telast_1.out
- root for input  files -> telast_1i
- root for output files -> telast_1o


--- !WARNING
src_file: m_nctk.F90
src_line: 572
message: |
    netcdf lib does not support MPI-IO and: NetCDF: Parallel operation on file opened for non-parallel access
...

  Asked to delete not existent file: __TMP_FILE__

--- !WARNING
src_file: m_nctk.F90
src_line: 592
message: |
    The netcdf library does not support parallel IO, see message above
    Abinit won't be able to produce files in parallel e.g. when paral_kgb==1 is used.
    Action: install a netcdf4+HDF5 library with MPI-IO support.
...

-instrng: 103 lines of input have been read from file telast_1.in


 Please give name of formatted atomic psp file
 iofn2 : for atom type 1, psp file is ../../../../../Psps_for_tests/13al.pspnc

 Please give name of formatted atomic psp file
 iofn2 : for atom type 2, psp file is ../../../../../Psps_for_tests/33as.pspnc
  read the values zionpsp=  3.0 , pspcod=   1 , lmax=   2
  read the values zionpsp=  5.0 , pspcod=   1 , lmax=   1

 inpspheads: deduce mpsang = 3, n1xccc = 2501.
 invars1 : treat image number: 1

 symlatt : the Bravais lattice is hP (primitive hexagonal)
  xred   is defined in input file
 ingeo: takes atomic coordinates from input array xred

 symlatt : the Bravais lattice is hP (primitive hexagonal)

 symlatt : the Bravais lattice is hP (primitive hexagonal)
 symspgr : spgroup= 186  P6_3 m c   (=C6v^4)
 symspgr : optical characteristics = uniaxial
 Optical axis (in reduced coordinates, real space ) :   0   0   1
 ingeo: angdeg(1:3)=   90.00000000   90.00000000  120.00000000
 invars1 : treat image number: 1

 symlatt : the Bravais lattice is hP (primitive hexagonal)
  xred   is defined in input file
 ingeo: takes atomic coordinates from input array xred

 symlatt : the Bravais lattice is hP (primitive hexagonal)

 symlatt : the Bravais lattice is hP (primitive hexagonal)
 symspgr : spgroup= 186  P6_3 m c   (=C6v^4)
 symspgr : optical characteristics = uniaxial
 Optical axis (in reduced coordinates, real space ) :   0   0   1
 ingeo: angdeg(1:3)=   90.00000000   90.00000000  120.00000000
 chkneu : initialized the occupation numbers for occopt=    1, spin-unpolarized or antiferromagnetic case :
  2.00  2.00  2.00  2.00  2.00  2.00  2.00  2.00
 chkneu : initialized the occupation numbers for occopt=    1, spin-unpolarized or antiferromagnetic case :
  2.00  2.00  2.00  2.00  2.00  2.00  2.00  2.00
npfft, npband, npspinor and npkpt:     1    1    1    4
mpi_setup: mkmem  undefined in the input file.Use default mkmem  = nkpt
 mpi_setup: With nkpt_me=2 and mkmem  = 8, ground state wf handled in core.
 Resetting mkmem  to nkpt_me to save memory space.
mpi_setup: mkqmem undefined in the input file.Use default mkqmem = nkpt
 mpi_setup: With nkpt_me=2 and mkqmem = 8, ground state wf handled in core.
 Resetting mkqmem to nkpt_me to save memory space.
mpi_setup: mk1mem undefined in the input file.Use default mk1mem = nkpt
 mpi_setup: With nkpt_me=2 and mk1mem = 8, ground state wf handled in core.
 Resetting mk1mem to nkpt_me to save memory space.
 For input ecut=  6.000000E+00 best grid ngfft=      18      18      30
       max ecut=  7.135358E+00

 ==== FFT mesh ====
  FFT mesh divisions ........................    18   18   30
  Augmented FFT divisions ...................    19   19   30
  FFT algorithm .............................   312
  FFT cache size ............................    16
 getmpw: optimal value of mpw= 428
npfft, npband, npspinor and npkpt:     1    1    1    4
mpi_setup: mkmem  undefined in the input file.Use default mkmem  = nkpt
 mpi_setup: With nkpt_me=2 and mkmem  = 8, ground state wf handled in core.
 Resetting mkmem  to nkpt_me to save memory space.
mpi_setup: mkqmem undefined in the input file.Use default mkqmem = nkpt
 mpi_setup: With nkpt_me=2 and mkqmem = 8, ground state wf handled in core.
 Resetting mkqmem to nkpt_me to save memory space.
mpi_setup: mk1mem undefined in the input file.Use default mk1mem = nkpt
 mpi_setup: With nkpt_me=2 and mk1mem = 8, ground state wf handled in core.
 Resetting mk1mem to nkpt_me to save memory space.
 For input ecut=  6.615000E+00 best grid ngfft=      18      18      30
       max ecut=  7.135358E+00

 ==== FFT mesh ====
  FFT mesh divisions ........................    18   18   30
  Augmented FFT divisions ...................    19   19   30
  FFT algorithm .............................   312
  FFT cache size ............................    16
 getmpw: optimal value of mpw= 494

 DATASET    1 : space group P6_3 m c (#186); Bravais hP (primitive hexag.)

 getdim_nloc : deduce lmnmax  =   4, lnmax  =   2,
                      lmnmaxso=   4, lnmaxso=   2.
memory : analysis of memory needs
================================================================================
 Values of the parameters that define the memory need for DATASET  1.
     intxc =       0    ionmov =       2      iscf =       7    lmnmax =       2
     lnmax =       2     mgfft =      30  mpssoang =       3    mqgrid =    3001
     natom =       4  nloc_mem =       1    nspden =       1   nspinor =       1
    nsppol =       1      nsym =      12    n1xccc =    2501    ntypat =       2
    occopt =       1   xclevel =       1
-    mband =           8        mffmem =           1         mkmem =           2
       mpw =         428          nfft =        9720          nkpt =           8
================================================================================
P This job should need less than                       3.738 Mbytes of memory.
  Rough estimation (10% accuracy) of disk space for files :
_ WF disk file :      0.420 Mbytes ; DEN or POT disk file :      0.076 Mbytes.
================================================================================

 Biggest array : f_fftgr(disk), with      1.1885 MBytes.
 memana : allocated an array of      1.189 Mbytes, for testing purposes.
 memana: allocated       3.738Mbytes, for testing purposes. 
 The job will continue.

 DATASET    2 : space group P6_3 m c (#186); Bravais hP (primitive hexag.)

 getdim_nloc : deduce lmnmax  =   4, lnmax  =   2,
                      lmnmaxso=   4, lnmaxso=   2.
memory : analysis of memory needs
================================================================================
 Values of the parameters that define the memory need for DATASET  2.
     intxc =       0    ionmov =       2      iscf =       7    lmnmax =       2
     lnmax =       2     mgfft =      30  mpssoang =       3    mqgrid =    3001
     natom =       4  nloc_mem =       1    nspden =       1   nspinor =       1
    nsppol =       1      nsym =      12    n1xccc =    2501    ntypat =       2
    occopt =       1   xclevel =       1
-    mband =           8        mffmem =           1         mkmem =           2
       mpw =         494          nfft =        9720          nkpt =           8
================================================================================
P This job should need less than                       3.770 Mbytes of memory.
  Rough estimation (10% accuracy) of disk space for files :
_ WF disk file :      0.484 Mbytes ; DEN or POT disk file :      0.076 Mbytes.
================================================================================

 Biggest array : f_fftgr(disk), with      1.1885 MBytes.
 memana : allocated an array of      1.189 Mbytes, for testing purposes.
 memana: allocated       3.770Mbytes, for testing purposes. 
 The job will continue.
--------------------------------------------------------------------------------
------------- Echo of variables that govern the present computation ------------
--------------------------------------------------------------------------------
-
- outvars: echo of selected default values                                      
-   iomode0 =  0 , fftalg0 =312 , wfoptalg0 =  0
-
- outvars: echo of global parameters not present in the input file              
-  max_nthreads =    1
-
 -outvars: echo values of preprocessed input variables --------
 
 These variables are accessible in NetCDF format (telast_1o_OUT.nc)

            acell      7.5000000000E+00  7.5000000000E+00  1.2263388000E+01 Bohr
              amu      2.69815390E+01  7.49215900E+01
           diemac      9.00000000E+00
          dilatmx1     1.00000000E+00
          dilatmx2     1.05000000E+00
             ecut      6.00000000E+00 Hartree
           ecutsm      5.00000000E-01 Hartree
-          fftalg         312
           getwfk1          0
           getwfk2         -1
          getxred1          0
          getxred2         -1
           iatfix        1    2
           ionmov           2
           jdtset        1    2
              kpt      0.00000000E+00  0.00000000E+00  1.25000000E-01
                       2.50000000E-01  0.00000000E+00  1.25000000E-01
                       5.00000000E-01  0.00000000E+00  1.25000000E-01
                       2.50000000E-01  2.50000000E-01  1.25000000E-01
                       0.00000000E+00  0.00000000E+00  3.75000000E-01
                       2.50000000E-01  0.00000000E+00  3.75000000E-01
                       5.00000000E-01  0.00000000E+00  3.75000000E-01
                       2.50000000E-01  2.50000000E-01  3.75000000E-01
         kptrlatt        4    0    0      0    4    0      0    0    4
P           mkmem           2
           natfix           2
            natom           4
            nband           8
           ndtset           2
            ngfft          18      18      30
             nkpt           8
            nstep          40
             nsym          12
            ntime1          5
            ntime2         12
           ntypat           2
              occ      2.000000  2.000000  2.000000  2.000000  2.000000  2.000000
                       2.000000  2.000000
          optcell1          0
          optcell2          2
        optforces           1
            rprim      8.6602540378E-01  5.0000000000E-01  0.0000000000E+00
                      -8.6602540378E-01  5.0000000000E-01  0.0000000000E+00
                       0.0000000000E+00  0.0000000000E+00  1.0000000000E+00
           shiftk      0.00000000E+00  0.00000000E+00  5.00000000E-01
          spgroup         186
           symrel      1  0  0   0  1  0   0  0  1       0  1  0   1  0  0   0  0  1
                       1  1  0  -1  0  0   0  0  1      -1  0  0   1  1  0   0  0  1
                       0  1  0  -1 -1  0   0  0  1      -1 -1  0   0  1  0   0  0  1
                      -1  0  0   0 -1  0   0  0  1       0 -1  0  -1  0  0   0  0  1
                      -1 -1  0   1  0  0   0  0  1       1  0  0  -1 -1  0   0  0  1
                       0 -1  0   1  1  0   0  0  1       1  1  0   0 -1  0   0  0  1
            tnons      0.0000000  0.0000000  0.0000000     0.0000000  0.0000000  0.5000000
                      -0.0000000  0.0000000  0.5000000     0.0000000  0.0000000  0.0000000
                       0.0000000 -0.0000000  0.0000000     0.0000000  0.0000000  0.5000000
                       0.0000000  0.0000000  0.5000000     0.0000000  0.0000000  0.0000000
                       0.0000000  0.0000000  0.0000000    -0.0000000  0.0000000  0.5000000
                       0.0000000  0.0000000  0.5000000     0.0000000 -0.0000000  0.0000000
           tolmxf      1.00000000E-06
           tolvrs      1.00000000E-18
            typat      1  1  2  2
              wtk        0.03125    0.18750    0.09375    0.18750    0.03125    0.18750
                         0.09375    0.18750
           xangst     -1.1457022644E+00  1.9844145322E+00  0.0000000000E+00
                       1.1457022644E+00  1.9844145322E+00  3.2447527148E+00
                      -1.1457022644E+00  1.9844145322E+00  2.4335645361E+00
                       1.1457022644E+00  1.9844145322E+00  5.6783172510E+00
            xcart     -2.1650635095E+00  3.7500000000E+00  0.0000000000E+00
                       2.1650635095E+00  3.7500000000E+00  6.1316940000E+00
                      -2.1650635095E+00  3.7500000000E+00  4.5987705000E+00
                       2.1650635095E+00  3.7500000000E+00  1.0730464500E+01
             xred      3.3333333333E-01  6.6666666667E-01  0.0000000000E+00
                       6.6666666667E-01  3.3333333333E-01  5.0000000000E-01
                       3.3333333333E-01  6.6666666667E-01  3.7500000000E-01
                       6.6666666667E-01  3.3333333333E-01  8.7500000000E-01
            znucl       13.00000   33.00000

================================================================================

 chkinp: Checking input parameters for consistency, jdtset=   1.

 chkinp: Checking input parameters for consistency, jdtset=   2.
 DATA TYPE INFORMATION: 
 REAL:      Data type name: REAL(DP) 
            Kind value:      8
            Precision:      15
            Smallest nonnegligible quantity relative to 1:  0.22204460E-15
            Smallest positive number:                       0.22250739-307
            Largest representable number:                   0.17976931+309
 INTEGER:   Data type name: INTEGER(default) 
            Kind value: 4
            Bit size:   32
            Largest representable number: 2147483647
 LOGICAL:   Data type name: LOGICAL 
            Kind value: 4
 CHARACTER: Data type name: CHARACTER             Kind value: 1

  ==== OpenMP parallelism is ON ====
- Max_threads:       1
- Num_threads:       1
- Num_procs:         8
- Dynamic:           F
- Nested:            F
 
  ==== Using MPI-2 specifications ==== 
  MPI-IO support is ON
  xmpi_tag_ub ................   2147483647
  xmpi_bsize_ch ..............            1
  xmpi_bsize_int .............            4
  xmpi_bsize_sp ..............            4
  xmpi_bsize_dp ..............            8
  xmpi_bsize_spc .............            8
  xmpi_bsize_dpc .............           16
  xmpio_bsize_frm ............            4
  xmpi_address_kind ..........            8
  xmpi_offset_kind ...........            8
  MPI_WTICK ..................    9.9999999999999995E-007

================================================================================
== DATASET  1 ==================================================================
-   nproc =    4


--- !COMMENT
src_file: m_xgScalapack.F90
src_line: 251
message: |
    xgScalapack in auto mode
...


 getdim_nloc : deduce lmnmax  =   4, lnmax  =   2,
                      lmnmaxso=   4, lnmaxso=   2.
 Exchange-correlation functional for the present dataset will be:
  LDA: new Teter (4/93) with spin-polarized option - ixc=1
 Citation for XC functional:
  S. Goedecker, M. Teter, J. Huetter, PRB 54, 1703 (1996)

 Unit cell volume ucvol=  5.9739781E+02 bohr^3
 Angles (23,13,12)=  9.00000000E+01  9.00000000E+01  1.20000000E+02 degrees

 getcut: wavevector=  0.0000  0.0000  0.0000  ngfft=  18  18  30
         ecut(hartree)=      6.000   => boxcut(ratio)=   2.18103
 kpgio: loop on k-points done in parallel
- pspini: atom type   1  psp file is ../../../../../Psps_for_tests/13al.pspnc
- pspatm: opening atomic psp file    ../../../../../Psps_for_tests/13al.pspnc
-  Troullier-Martins psp for element  Al        Thu Oct 27 17:31:05 EDT 1994
- 13.00000   3.00000    940714                znucl, zion, pspdat
    1    1    2    2      2001   0.00000      pspcod,pspxc,lmax,lloc,mmax,r2well
    0   4.657  11.889    1   2.2761078        l,e99.0,e99.9,nproj,rcpsp
   0.00000000   0.00000000   0.00000000   0.00000000     rms, ekb1, ekb2, epsatm
    1   1.829   2.761    1   2.2761078        l,e99.0,e99.9,nproj,rcpsp
   0.00000000   0.00000000   0.00000000   0.00000000     rms, ekb1, ekb2, epsatm
    2   0.000   0.000    0   2.2761078        l,e99.0,e99.9,nproj,rcpsp
   0.00000000   0.00000000   0.00000000   0.00000000     rms, ekb1, ekb2, epsatm
    2.09673076353074    0.12648111154518    1.01742091001718   rchrg,fchrg,qchrg
  pspatm : epsatm=    0.22155260
         --- l  ekb(1:nproj) -->
             0    2.540658
             1    1.353815
 pspatm: atomic psp has been read  and splines computed

- pspini: atom type   2  psp file is ../../../../../Psps_for_tests/33as.pspnc
- pspatm: opening atomic psp file    ../../../../../Psps_for_tests/33as.pspnc
-  Troullier-Martins psp for element  As        Thu Oct 27 17:37:14 EDT 1994
- 33.00000   5.00000    940714                znucl, zion, pspdat
    1    1    1    1      2001   0.00000      pspcod,pspxc,lmax,lloc,mmax,r2well
    0   4.772  10.829    1   2.5306160        l,e99.0,e99.9,nproj,rcpsp
   0.00000000   0.00000000   0.00000000   0.00000000     rms, ekb1, ekb2, epsatm
    1   2.745   5.580    0   2.5306160        l,e99.0,e99.9,nproj,rcpsp
   0.00000000   0.00000000   0.00000000   0.00000000     rms, ekb1, ekb2, epsatm
    2.05731715564010    0.36322996461007    2.76014815959125   rchrg,fchrg,qchrg
  pspatm : epsatm=   27.20579911
         --- l  ekb(1:nproj) -->
             0    0.838751
 pspatm: atomic psp has been read  and splines computed

   8.77675255E+02                                ecore*ucvol(ha*bohr**3)
 ==== Info on pseudopotentials ====
  Norm-conserving pseudopotentials
  Number of pseudopotentials ..    2
  Number of types of atoms   ..    2
  Scalar calculation (no spin-orbit term)
  Nonlocal part applied using Legendre polynomials
  Max number of non-local projectors over l and type   1
  Highest angular momentum +1 .......   3
  Max number of (l,n)   components ..   2
  Max number of (l,m,n) components ..   2

 Pseudo-Core Charge Info: 
   Number of radial points for pseudo-core charge .. 2501
   XC core-correction treatment (optnlxccc) ........    1
   Radius for pseudo-core charge for each type ..... 

  - Atom type    1 has pseudo-core radius ..  6.2902
  - Atom type    2 has pseudo-core radius ..  6.1720

 Info on the Q-grid used for form factors in spline form: 
   Number of q-points for radial functions ffspl ..   3001
   Number of q-points for vlspl ...................   3001
   vloc is computed in Reciprocal Space
   model core charge treated in real-space

  XC functional for type 1 is 1
  Pseudo valence available: no
  XC functional for type 2 is 1
  Pseudo valence available: no

 wfconv:     8 bands initialized randomly with npw=   397, for ikpt=     1
 wfconv:     8 bands initialized randomly with npw=   418, for ikpt=     2
_setup2: Arith. and geom. avg. npw (full set) are     419.906     419.872
 initro: for itypat=  1, take decay length=      1.2500,
 initro: indeed, coreel=     10.0000, nval=  3 and densty=  0.0000E+00.
 initro: for itypat=  2, take decay length=      1.0000,
 initro: indeed, coreel=     28.0000, nval=  5 and densty=  0.0000E+00.

================================================================================

=== [ionmov= 2] Broyden-Fletcher-Goldfard-Shanno method (forces)            
================================================================================

--- Iteration: (1/5) Internal Cycle: (1/1)
--------------------------------------------------------------------------------

 Cartesian coordinates (xcart) [bohr]
 -2.16506350946110E+00  3.75000000000000E+00  0.00000000000000E+00
  2.16506350946110E+00  3.75000000000000E+00  6.13169400000000E+00
 -2.16506350946110E+00  3.75000000000000E+00  4.59877050000000E+00
  2.16506350946110E+00  3.75000000000000E+00  1.07304645000000E+01
 Reduced coordinates (xred)
  3.33333333333333E-01  6.66666666666667E-01  0.00000000000000E+00
  6.66666666666667E-01  3.33333333333333E-01  5.00000000000000E-01
  3.33333333333333E-01  6.66666666666667E-01  3.75000000000000E-01
  6.66666666666667E-01  3.33333333333333E-01  8.75000000000000E-01

---SELF-CONSISTENT-FIELD CONVERGENCE--------------------------------------------

 getcut: wavevector=  0.0000  0.0000  0.0000  ngfft=  18  18  30
         ecut(hartree)=      6.000   => boxcut(ratio)=   2.18103

 ITER STEP NUMBER     1
 vtorho : nnsclo_now=2, note that nnsclo,dbl_nnsclo,istep=0 0 1

--- !WARNING
src_file: m_vtorho.F90
src_line: 1651
message: |
    For k-point number 1,
    The minimal occupation factor is  2.000.
    An adequate monitoring of convergence requires it to be  at most 0.01_dp.
    Action: increase slightly the number of bands.
...

 Total charge density [el/Bohr^3]
      Maximum=    1.0270E-01  at reduced coord.    0.8889    0.4444    0.9000
      Minimum=    1.6122E-03  at reduced coord.    0.0000    0.0000    0.1667
   Integrated=    1.6000E+01
  rhotov : is_hybrid_ncpp= F
  rhotov : n3xccc=        9720
 ETOT  1  -20.254324165592    -2.025E+01 4.450E-03 8.334E+00 1.787E-04 1.787E-04
 scprqt: <Vxc>= -3.4142813E-01 hartree

Simple mixing update:
  residual square of the potential :   3.5715321837205800
 scfcv_core: previous iteration took 00 [s]

 ITER STEP NUMBER     2
 vtorho : nnsclo_now=2, note that nnsclo,dbl_nnsclo,istep=0 0 2

--- !WARNING
src_file: m_vtorho.F90
src_line: 1651
message: |
    For k-point number 1,
    The minimal occupation factor is  2.000.
    An adequate monitoring of convergence requires it to be  at most 0.01_dp.
    Action: increase slightly the number of bands.
...

 Total charge density [el/Bohr^3]
      Maximum=    9.5123E-02  at reduced coord.    0.8889    0.4444    0.9000
      Minimum=    1.9896E-03  at reduced coord.    0.0000    0.0000    0.1667
   Integrated=    1.6000E+01
  rhotov : is_hybrid_ncpp= F
  rhotov : n3xccc=        9720
 ETOT  2  -20.270075644820    -1.575E-02 1.005E-07 4.210E-01 5.371E-04 7.157E-04
 scprqt: <Vxc>= -3.4444037E-01 hartree

 Pulay update with  1 previous iterations:
 mixing of old trial potential : alpha(m:m-4)=  0.896      0.104
 scfcv_core: previous iteration took 00 [s]

 ITER STEP NUMBER     3
 vtorho : nnsclo_now=1, note that nnsclo,dbl_nnsclo,istep=0 0 3

--- !WARNING
src_file: m_vtorho.F90
src_line: 1651
message: |
    For k-point number 1,
    The minimal occupation factor is  2.000.
    An adequate monitoring of convergence requires it to be  at most 0.01_dp.
    Action: increase slightly the number of bands.
...

 Total charge density [el/Bohr^3]
      Maximum=    9.6233E-02  at reduced coord.    0.8889    0.4444    0.9000
      Minimum=    2.0130E-03  at reduced coord.    0.0000    0.0000    0.1667
   Integrated=    1.6000E+01
  rhotov : is_hybrid_ncpp= F
  rhotov : n3xccc=        9720
 ETOT  3  -20.270785645400    -7.100E-04 4.785E-06 3.263E-02 2.090E-04 5.068E-04
 scprqt: <Vxc>= -3.4414216E-01 hartree

 Pulay update with  2 previous iterations:
 mixing of old trial potential : alpha(m:m-4)=   1.01      0.356E-01 -0.468E-01
 scfcv_core: previous iteration took 00 [s]

 ITER STEP NUMBER     4
 vtorho : nnsclo_now=1, note that nnsclo,dbl_nnsclo,istep=0 0 4

--- !WARNING
src_file: m_vtorho.F90
src_line: 1651
message: |
    For k-point number 1,
    The minimal occupation factor is  2.000.
    An adequate monitoring of convergence requires it to be  at most 0.01_dp.
    Action: increase slightly the number of bands.
...

 Total charge density [el/Bohr^3]
      Maximum=    9.5990E-02  at reduced coord.    0.8889    0.4444    0.9000
      Minimum=    2.0443E-03  at reduced coord.    0.0000    0.0000    0.1667
   Integrated=    1.6000E+01
  rhotov : is_hybrid_ncpp= F
  rhotov : n3xccc=        9720
 ETOT  4  -20.270824761135    -3.912E-05 1.664E-07 8.458E-04 3.056E-05 5.373E-04
 scprqt: <Vxc>= -3.4428391E-01 hartree

 Pulay update with  3 previous iterations:
 mixing of old trial potential : alpha(m:m-4)=   1.31     -0.292     -0.288E-01  0.921E-02
 scfcv_core: previous iteration took 00 [s]

 ITER STEP NUMBER     5
 vtorho : nnsclo_now=1, note that nnsclo,dbl_nnsclo,istep=0 0 5

--- !WARNING
src_file: m_vtorho.F90
src_line: 1651
message: |
    For k-point number 1,
    The minimal occupation factor is  2.000.
    An adequate monitoring of convergence requires it to be  at most 0.01_dp.
    Action: increase slightly the number of bands.
...

 Total charge density [el/Bohr^3]
      Maximum=    9.5987E-02  at reduced coord.    0.8889    0.4444    0.9000
      Minimum=    2.0526E-03  at reduced coord.    0.0000    0.0000    0.1667
   Integrated=    1.6000E+01
  rhotov : is_hybrid_ncpp= F
  rhotov : n3xccc=        9720
 ETOT  5  -20.270825185104    -4.240E-07 1.638E-09 6.028E-06 1.048E-05 5.478E-04
 scprqt: <Vxc>= -3.4430095E-01 hartree

 Pulay update with  4 previous iterations:
 mixing of old trial potential : alpha(m:m-4)=   1.16     -0.188      0.305E-01  0.329E-02 -0.886E-03
 scfcv_core: previous iteration took 00 [s]

 ITER STEP NUMBER     6
 vtorho : nnsclo_now=1, note that nnsclo,dbl_nnsclo,istep=0 0 6
 Total charge density [el/Bohr^3]
      Maximum=    9.5986E-02  at reduced coord.    0.8889    0.4444    0.9000
      Minimum=    2.0531E-03  at reduced coord.    0.0000    0.0000    0.1667
   Integrated=    1.6000E+01
  rhotov : is_hybrid_ncpp= F
  rhotov : n3xccc=        9720
 ETOT  6  -20.270825188715    -3.612E-09 1.650E-11 1.112E-07 2.953E-06 5.448E-04
 scprqt: <Vxc>= -3.4430197E-01 hartree

 Pulay update with  5 previous iterations:
 mixing of old trial potential : alpha(m:m-4)=   1.14     -0.148      0.120E-01 -0.139E-02 -0.259E-03
 scfcv_core: previous iteration took 00 [s]

 ITER STEP NUMBER     7
 vtorho : nnsclo_now=1, note that nnsclo,dbl_nnsclo,istep=0 0 7
 Total charge density [el/Bohr^3]
      Maximum=    9.5986E-02  at reduced coord.    0.8889    0.4444    0.9000
      Minimum=    2.0532E-03  at reduced coord.    0.0000    0.0000    0.1667
   Integrated=    1.6000E+01
  rhotov : is_hybrid_ncpp= F
  rhotov : n3xccc=        9720
 ETOT  7  -20.270825188810    -9.494E-11 1.341E-12 3.967E-09 1.396E-06 5.462E-04
 scprqt: <Vxc>= -3.4430186E-01 hartree

 Pulay update with  6 previous iterations:
 mixing of old trial potential : alpha(m:m-4)=  0.987      0.556E-01 -0.486E-01  0.726E-02 -0.123E-02
 scfcv_core: previous iteration took 00 [s]

 ITER STEP NUMBER     8
 vtorho : nnsclo_now=1, note that nnsclo,dbl_nnsclo,istep=0 0 8
 Total charge density [el/Bohr^3]
      Maximum=    9.5986E-02  at reduced coord.    0.8889    0.4444    0.9000
      Minimum=    2.0532E-03  at reduced coord.    0.0000    0.0000    0.1667
   Integrated=    1.6000E+01
  rhotov : is_hybrid_ncpp= F
  rhotov : n3xccc=        9720
 ETOT  8  -20.270825188815    -4.835E-12 9.712E-14 5.430E-11 3.021E-07 5.459E-04
 scprqt: <Vxc>= -3.4430186E-01 hartree

 Pulay update with  7 previous iterations:
 mixing of old trial potential : alpha(m:m-4)=   1.15     -0.132     -0.217E-01  0.748E-02 -0.847E-03
 scfcv_core: previous iteration took 00 [s]

 ITER STEP NUMBER     9
 vtorho : nnsclo_now=1, note that nnsclo,dbl_nnsclo,istep=0 0 9
 Total charge density [el/Bohr^3]
      Maximum=    9.5986E-02  at reduced coord.    0.8889    0.4444    0.9000
      Minimum=    2.0532E-03  at reduced coord.    0.0000    0.0000    0.1667
   Integrated=    1.6000E+01
  rhotov : is_hybrid_ncpp= F
  rhotov : n3xccc=        9720
 ETOT  9  -20.270825188815     1.421E-14 2.969E-16 7.388E-13 2.542E-09 5.459E-04
 scprqt: <Vxc>= -3.4430186E-01 hartree

 Pulay update with  7 previous iterations:
 mixing of old trial potential : alpha(m:m-4)=   1.15     -0.164      0.120E-01  0.187E-02 -0.460E-03
 scfcv_core: previous iteration took 00 [s]

 ITER STEP NUMBER    10
 vtorho : nnsclo_now=1, note that nnsclo,dbl_nnsclo,istep=0 0 10
 Total charge density [el/Bohr^3]
      Maximum=    9.5986E-02  at reduced coord.    0.8889    0.4444    0.9000
      Minimum=    2.0532E-03  at reduced coord.    0.0000    0.0000    0.1667
   Integrated=    1.6000E+01
  rhotov : is_hybrid_ncpp= F
  rhotov : n3xccc=        9720
 ETOT 10  -20.270825188815     4.619E-14 4.751E-18 1.060E-14 6.243E-10 5.459E-04
 scprqt: <Vxc>= -3.4430186E-01 hartree

 Pulay update with  7 previous iterations:
 mixing of old trial potential : alpha(m:m-4)=   1.15     -0.155      0.348E-02  0.373E-04  0.652E-04
 scfcv_core: previous iteration took 00 [s]

 ITER STEP NUMBER    11
 vtorho : nnsclo_now=1, note that nnsclo,dbl_nnsclo,istep=0 0 11
 Total charge density [el/Bohr^3]
      Maximum=    9.5986E-02  at reduced coord.    0.8889    0.4444    0.9000
      Minimum=    2.0532E-03  at reduced coord.    0.0000    0.0000    0.1667
   Integrated=    1.6000E+01
  rhotov : is_hybrid_ncpp= F
  rhotov : n3xccc=        9720
 ETOT 11  -20.270825188815    -3.553E-14 5.081E-20 1.295E-16 5.546E-11 5.459E-04
 scprqt: <Vxc>= -3.4430186E-01 hartree

 Pulay update with  7 previous iterations:
 mixing of old trial potential : alpha(m:m-4)=   1.16     -0.166      0.722E-02  0.618E-03 -0.196E-04
 scfcv_core: previous iteration took 00 [s]

 ITER STEP NUMBER    12
 vtorho : nnsclo_now=1, note that nnsclo,dbl_nnsclo,istep=0 0 12
 Total charge density [el/Bohr^3]
      Maximum=    9.5986E-02  at reduced coord.    0.8889    0.4444    0.9000
      Minimum=    2.0532E-03  at reduced coord.    0.0000    0.0000    0.1667
   Integrated=    1.6000E+01
  rhotov : is_hybrid_ncpp= F
  rhotov : n3xccc=        9720
 ETOT 12  -20.270825188815    -4.974E-14 4.891E-22 6.983E-19 5.674E-12 5.459E-04
 scprqt: <Vxc>= -3.4430186E-01 hartree

 At SCF step   12       vres2   =  6.98E-19 < tolvrs=  1.00E-18 =>converged.

 Cartesian components of stress tensor (hartree/bohr^3)
  sigma(1 1)= -3.32496227E-05  sigma(3 2)=  0.00000000E+00
  sigma(2 2)= -3.32496227E-05  sigma(3 1)=  0.00000000E+00
  sigma(3 3)= -2.34717014E-05  sigma(2 1)=  0.00000000E+00

 fftdatar_write: About to write data to: telast_1o_DS1_TIM1_DEN with iomode IO_MODE_FORTRAN
 IO operation completed. cpu_time:       0.0 [s], walltime:       0.0 [s]
 Write iteration in HIST netCDF file

---OUTPUT-----------------------------------------------------------------------

 Cartesian coordinates (xcart) [bohr]
 -2.16506350946110E+00  3.75000000000000E+00  0.00000000000000E+00
  2.16506350946110E+00  3.75000000000000E+00  6.13169400000000E+00
 -2.16506350946110E+00  3.75000000000000E+00  4.59877050000000E+00
  2.16506350946110E+00  3.75000000000000E+00  1.07304645000000E+01
 Reduced coordinates (xred)
  3.33333333333333E-01  6.66666666666667E-01  0.00000000000000E+00
  6.66666666666667E-01  3.33333333333333E-01  5.00000000000000E-01
  3.33333333333333E-01  6.66666666666667E-01  3.75000000000000E-01
  6.66666666666667E-01  3.33333333333333E-01  8.75000000000000E-01
 Cartesian forces (fcart) [Ha/bohr]; max,rms= 5.45946E-04 3.15202E-04 (free atoms)
 -0.00000000000000E+00 -0.00000000000000E+00 -5.45946165183330E-04
 -0.00000000000000E+00 -0.00000000000000E+00 -5.45946165183330E-04
 -0.00000000000000E+00 -0.00000000000000E+00  5.45946165183330E-04
 -0.00000000000000E+00 -0.00000000000000E+00  5.45946165183330E-04
 Reduced forces (fred)
  0.00000000000000E+00 -0.00000000000000E+00  6.69514965075527E-03
  0.00000000000000E+00 -0.00000000000000E+00  6.69514965075527E-03
 -0.00000000000000E+00 -0.00000000000000E+00 -6.69514965075527E-03
 -0.00000000000000E+00 -0.00000000000000E+00 -6.69514965075527E-03
 Total energy (etotal) [Ha]= -2.02708251888150E+01
 fconv : at Broyd/MD step   1, gradients have not converged yet. 
  max grad (force/stress) = 5.4595E-04 > tolmxf= 1.0000E-06 ha/bohr (free atoms)

Inverse hessian has been initialized.
 EXIT:           1           1
 mover: previous time step took 01 [s]

--- Iteration: (2/5) Internal Cycle: (1/1)
--------------------------------------------------------------------------------

 Cartesian coordinates (xcart) [bohr]
 -2.16506350946110E+00  3.75000000000000E+00  0.00000000000000E+00
  2.16506350946110E+00  3.75000000000000E+00  6.13169400000000E+00
 -2.16506350946110E+00  3.75000000000000E+00  4.59931644616518E+00
  2.16506350946110E+00  3.75000000000000E+00  1.07310104461652E+01
 Reduced coordinates (xred)
  3.33333333333333E-01  6.66666666666667E-01  0.00000000000000E+00
  6.66666666666667E-01  3.33333333333333E-01  5.00000000000000E-01
  3.33333333333333E-01  6.66666666666667E-01  3.75044518379846E-01
  6.66666666666667E-01  3.33333333333333E-01  8.75044518379846E-01

---SELF-CONSISTENT-FIELD CONVERGENCE--------------------------------------------

 getcut: wavevector=  0.0000  0.0000  0.0000  ngfft=  18  18  30
         ecut(hartree)=      6.000   => boxcut(ratio)=   2.18103

 ITER STEP NUMBER     1
 vtorho : nnsclo_now=2, note that nnsclo,dbl_nnsclo,istep=0 0 1
 Total charge density [el/Bohr^3]
      Maximum=    9.5990E-02  at reduced coord.    0.8889    0.4444    0.9000
      Minimum=    2.0528E-03  at reduced coord.    0.0000    0.0000    0.1667
   Integrated=    1.6000E+01
  rhotov : is_hybrid_ncpp= F
  rhotov : n3xccc=        9720
 ETOT  1  -20.270825740735    -2.027E+01 2.209E-13 9.542E-06 2.546E-05 5.205E-04
 scprqt: <Vxc>= -3.4430071E-01 hartree

Simple mixing update:
  residual square of the potential :   3.7869208908497404E-006
 scfcv_core: previous iteration took 00 [s]

 ITER STEP NUMBER     2
 vtorho : nnsclo_now=2, note that nnsclo,dbl_nnsclo,istep=0 0 2
 Total charge density [el/Bohr^3]
      Maximum=    9.5986E-02  at reduced coord.    0.8889    0.4444    0.9000
      Minimum=    2.0530E-03  at reduced coord.    0.0000    0.0000    0.1667
   Integrated=    1.6000E+01
  rhotov : is_hybrid_ncpp= F
  rhotov : n3xccc=        9720
 ETOT  2  -20.270825755088    -1.435E-08 2.445E-14 2.407E-07 3.041E-05 4.901E-04
 scprqt: <Vxc>= -3.4430187E-01 hartree

 Pulay update with  1 previous iterations:
 mixing of old trial potential : alpha(m:m-4)=  0.899      0.101
 scfcv_core: previous iteration took 00 [s]

 ITER STEP NUMBER     3
 vtorho : nnsclo_now=1, note that nnsclo,dbl_nnsclo,istep=0 0 3
 Total charge density [el/Bohr^3]
      Maximum=    9.5987E-02  at reduced coord.    0.8889    0.4444    0.9000
      Minimum=    2.0530E-03  at reduced coord.    0.0000    0.0000    0.1667
   Integrated=    1.6000E+01
  rhotov : is_hybrid_ncpp= F
  rhotov : n3xccc=        9720
 ETOT  3  -20.270825755544    -4.559E-10 8.136E-12 1.062E-08 2.370E-06 4.924E-04
 scprqt: <Vxc>= -3.4430165E-01 hartree

 Pulay update with  2 previous iterations:
 mixing of old trial potential : alpha(m:m-4)=  0.988      0.309E-01 -0.193E-01
 scfcv_core: previous iteration took 00 [s]

 ITER STEP NUMBER     4
 vtorho : nnsclo_now=1, note that nnsclo,dbl_nnsclo,istep=0 0 4
 Total charge density [el/Bohr^3]
      Maximum=    9.5987E-02  at reduced coord.    0.8889    0.4444    0.9000
      Minimum=    2.0530E-03  at reduced coord.    0.0000    0.0000    0.1667
   Integrated=    1.6000E+01
  rhotov : is_hybrid_ncpp= F
  rhotov : n3xccc=        9720
 ETOT  4  -20.270825755557    -1.315E-11 1.088E-13 4.889E-10 2.371E-07 4.922E-04
 scprqt: <Vxc>= -3.4430171E-01 hartree

 Pulay update with  3 previous iterations:
 mixing of old trial potential : alpha(m:m-4)=   1.05     -0.105E-01 -0.326E-01 -0.501E-02
 scfcv_core: previous iteration took 00 [s]

 ITER STEP NUMBER     5
 vtorho : nnsclo_now=1, note that nnsclo,dbl_nnsclo,istep=0 0 5
 Total charge density [el/Bohr^3]
      Maximum=    9.5987E-02  at reduced coord.    0.8889    0.4444    0.9000
      Minimum=    2.0530E-03  at reduced coord.    0.0000    0.0000    0.1667
   Integrated=    1.6000E+01
  rhotov : is_hybrid_ncpp= F
  rhotov : n3xccc=        9720
 ETOT  5  -20.270825755557    -3.517E-13 6.559E-15 1.608E-11 5.830E-08 4.921E-04
 scprqt: <Vxc>= -3.4430171E-01 hartree

 Pulay update with  4 previous iterations:
 mixing of old trial potential : alpha(m:m-4)=   1.05      0.150E-02 -0.487E-01 -0.659E-03  0.913E-03
 scfcv_core: previous iteration took 00 [s]

 ITER STEP NUMBER     6
 vtorho : nnsclo_now=1, note that nnsclo,dbl_nnsclo,istep=0 0 6
 Total charge density [el/Bohr^3]
      Maximum=    9.5987E-02  at reduced coord.    0.8889    0.4444    0.9000
      Minimum=    2.0530E-03  at reduced coord.    0.0000    0.0000    0.1667
   Integrated=    1.6000E+01
  rhotov : is_hybrid_ncpp= F
  rhotov : n3xccc=        9720
 ETOT  6  -20.270825755558    -1.101E-13 8.326E-17 2.500E-13 1.243E-08 4.922E-04
 scprqt: <Vxc>= -3.4430171E-01 hartree

 Pulay update with  5 previous iterations:
 mixing of old trial potential : alpha(m:m-4)=   1.23     -0.227     -0.144E-01  0.972E-02  0.567E-03
 scfcv_core: previous iteration took 00 [s]

 ITER STEP NUMBER     7
 vtorho : nnsclo_now=1, note that nnsclo,dbl_nnsclo,istep=0 0 7
 Total charge density [el/Bohr^3]
      Maximum=    9.5987E-02  at reduced coord.    0.8889    0.4444    0.9000
      Minimum=    2.0530E-03  at reduced coord.    0.0000    0.0000    0.1667
   Integrated=    1.6000E+01
  rhotov : is_hybrid_ncpp= F
  rhotov : n3xccc=        9720
 ETOT  7  -20.270825755557     7.105E-15 3.785E-19 4.107E-15 3.072E-10 4.922E-04
 scprqt: <Vxc>= -3.4430171E-01 hartree

 Pulay update with  6 previous iterations:
 mixing of old trial potential : alpha(m:m-4)=   1.23     -0.264      0.355E-01  0.339E-02 -0.157E-02
 scfcv_core: previous iteration took 00 [s]

 ITER STEP NUMBER     8
 vtorho : nnsclo_now=1, note that nnsclo,dbl_nnsclo,istep=0 0 8
 Total charge density [el/Bohr^3]
      Maximum=    9.5987E-02  at reduced coord.    0.8889    0.4444    0.9000
      Minimum=    2.0530E-03  at reduced coord.    0.0000    0.0000    0.1667
   Integrated=    1.6000E+01
  rhotov : is_hybrid_ncpp= F
  rhotov : n3xccc=        9720
 ETOT  8  -20.270825755558    -1.528E-13 8.042E-21 7.829E-17 4.416E-11 4.922E-04
 scprqt: <Vxc>= -3.4430171E-01 hartree

 Pulay update with  7 previous iterations:
 mixing of old trial potential : alpha(m:m-4)=   1.24     -0.275      0.335E-01 -0.327E-02 -0.511E-03
 scfcv_core: previous iteration took 00 [s]

 ITER STEP NUMBER     9
 vtorho : nnsclo_now=1, note that nnsclo,dbl_nnsclo,istep=0 0 9
 Total charge density [el/Bohr^3]
      Maximum=    9.5987E-02  at reduced coord.    0.8889    0.4444    0.9000
      Minimum=    2.0530E-03  at reduced coord.    0.0000    0.0000    0.1667
   Integrated=    1.6000E+01
  rhotov : is_hybrid_ncpp= F
  rhotov : n3xccc=        9720
 ETOT  9  -20.270825755557     1.705E-13 1.696E-22 2.297E-19 9.445E-12 4.922E-04
 scprqt: <Vxc>= -3.4430171E-01 hartree

 At SCF step    9       vres2   =  2.30E-19 < tolvrs=  1.00E-18 =>converged.

 Cartesian components of stress tensor (hartree/bohr^3)
  sigma(1 1)= -3.34247431E-05  sigma(3 2)=  0.00000000E+00
  sigma(2 2)= -3.34247431E-05  sigma(3 1)=  0.00000000E+00
  sigma(3 3)= -2.31230508E-05  sigma(2 1)=  0.00000000E+00

 fftdatar_write: About to write data to: telast_1o_DS1_TIM2_DEN with iomode IO_MODE_FORTRAN
 IO operation completed. cpu_time:       0.0 [s], walltime:       0.0 [s]
 Write iteration in HIST netCDF file

---OUTPUT-----------------------------------------------------------------------

 Cartesian coordinates (xcart) [bohr]
 -2.16506350946110E+00  3.75000000000000E+00  0.00000000000000E+00
  2.16506350946110E+00  3.75000000000000E+00  6.13169400000000E+00
 -2.16506350946110E+00  3.75000000000000E+00  4.59931644616518E+00
  2.16506350946110E+00  3.75000000000000E+00  1.07310104461652E+01
 Reduced coordinates (xred)
  3.33333333333333E-01  6.66666666666667E-01  0.00000000000000E+00
  6.66666666666667E-01  3.33333333333333E-01  5.00000000000000E-01
  3.33333333333333E-01  6.66666666666667E-01  3.75044518379846E-01
  6.66666666666667E-01  3.33333333333333E-01  8.75044518379846E-01
 Cartesian forces (fcart) [Ha/bohr]; max,rms= 4.92159E-04 2.84148E-04 (free atoms)
 -5.12380187980338E-32  8.87468518373638E-32 -4.92159356880518E-04
 -5.12380187980338E-32  8.87468518373638E-32 -4.92159356880518E-04
 -5.12380187980338E-32  8.87468518373638E-32  4.92159356880518E-04
  1.53714056394101E-31 -2.66240555512092E-31  4.92159356880518E-04
 Reduced forces (fred)
 -4.37905770101505E-47 -6.65601388780229E-31  6.03554115125626E-03
 -4.37905770101505E-47 -6.65601388780229E-31  6.03554115125626E-03
 -4.37905770101505E-47 -6.65601388780229E-31 -6.03554115125626E-03
  1.75162308040602E-46  1.99680416634069E-30 -6.03554115125626E-03
 Total energy (etotal) [Ha]= -2.02708257555575E+01

 Difference of energy with previous step (new-old):
           Absolute (Ha)=-5.66742E-07
           Relative     =-2.79585E-08
 fconv : at Broyd/MD step   2, gradients have not converged yet. 
  max grad (force/stress) = 4.9216E-04 > tolmxf= 1.0000E-06 ha/bohr (free atoms)

 EXIT:           1           1
 mover: previous time step took 01 [s]

--- Iteration: (3/5) Internal Cycle: (1/1)
--------------------------------------------------------------------------------

 Cartesian coordinates (xcart) [bohr]
 -2.16506350946110E+00  3.75000000000000E+00  0.00000000000000E+00
  2.16506350946110E+00  3.75000000000000E+00  6.13169400000000E+00
 -2.16506350946110E+00  3.75000000000000E+00  4.60431195569673E+00
  2.16506350946110E+00  3.75000000000000E+00  1.07360059556967E+01
 Reduced coordinates (xred)
  3.33333333333333E-01  6.66666666666667E-01  0.00000000000000E+00
  6.66666666666667E-01  3.33333333333333E-01  5.00000000000000E-01
  3.33333333333333E-01  6.66666666666667E-01  3.75451869882672E-01
  6.66666666666667E-01  3.33333333333333E-01  8.75451869882672E-01

---SELF-CONSISTENT-FIELD CONVERGENCE--------------------------------------------

 getcut: wavevector=  0.0000  0.0000  0.0000  ngfft=  18  18  30
         ecut(hartree)=      6.000   => boxcut(ratio)=   2.18103

 ITER STEP NUMBER     1
 vtorho : nnsclo_now=2, note that nnsclo,dbl_nnsclo,istep=0 0 1
 Total charge density [el/Bohr^3]
      Maximum=    9.6027E-02  at reduced coord.    0.8889    0.4444    0.9000
      Minimum=    2.0499E-03  at reduced coord.    0.0000    0.0000    0.1667
   Integrated=    1.6000E+01
  rhotov : is_hybrid_ncpp= F
  rhotov : n3xccc=        9720
 ETOT  1  -20.270826991074    -2.027E+01 1.873E-11 7.930E-04 2.319E-04 2.603E-04
 scprqt: <Vxc>= -3.4429122E-01 hartree

Simple mixing update:
  residual square of the potential :   3.1480104565381344E-004
 scfcv_core: previous iteration took 00 [s]

 ITER STEP NUMBER     2
 vtorho : nnsclo_now=2, note that nnsclo,dbl_nnsclo,istep=0 0 2
 Total charge density [el/Bohr^3]
      Maximum=    9.5989E-02  at reduced coord.    0.8889    0.4444    0.9000
      Minimum=    2.0511E-03  at reduced coord.    0.0000    0.0000    0.1667
   Integrated=    1.6000E+01
  rhotov : is_hybrid_ncpp= F
  rhotov : n3xccc=        9720
 ETOT  2  -20.270828183509    -1.192E-06 2.072E-12 2.000E-05 2.769E-04 1.659E-05
 scprqt: <Vxc>= -3.4430178E-01 hartree

 Pulay update with  1 previous iterations:
 mixing of old trial potential : alpha(m:m-4)=  0.899      0.101
 scfcv_core: previous iteration took 00 [s]

 ITER STEP NUMBER     3
 vtorho : nnsclo_now=1, note that nnsclo,dbl_nnsclo,istep=0 0 3
 Total charge density [el/Bohr^3]
      Maximum=    9.5998E-02  at reduced coord.    0.8889    0.4444    0.9000
      Minimum=    2.0512E-03  at reduced coord.    0.0000    0.0000    0.1667
   Integrated=    1.6000E+01
  rhotov : is_hybrid_ncpp= F
  rhotov : n3xccc=        9720
 ETOT  3  -20.270828221392    -3.788E-08 6.753E-10 8.849E-07 2.158E-05 4.988E-06
 scprqt: <Vxc>= -3.4429978E-01 hartree

 Pulay update with  2 previous iterations:
 mixing of old trial potential : alpha(m:m-4)=  0.989      0.308E-01 -0.193E-01
 scfcv_core: previous iteration took 00 [s]

 ITER STEP NUMBER     4
 vtorho : nnsclo_now=1, note that nnsclo,dbl_nnsclo,istep=0 0 4
 Total charge density [el/Bohr^3]
      Maximum=    9.5996E-02  at reduced coord.    0.8889    0.4444    0.9000
      Minimum=    2.0513E-03  at reduced coord.    0.0000    0.0000    0.1667
   Integrated=    1.6000E+01
  rhotov : is_hybrid_ncpp= F
  rhotov : n3xccc=        9720
 ETOT  4  -20.270828222476    -1.084E-09 9.087E-12 4.071E-08 2.171E-06 2.817E-06
 scprqt: <Vxc>= -3.4430036E-01 hartree

 Pulay update with  3 previous iterations:
 mixing of old trial potential : alpha(m:m-4)=   1.05     -0.106E-01 -0.325E-01 -0.500E-02
 scfcv_core: previous iteration took 00 [s]

 ITER STEP NUMBER     5
 vtorho : nnsclo_now=1, note that nnsclo,dbl_nnsclo,istep=0 0 5
 Total charge density [el/Bohr^3]
      Maximum=    9.5997E-02  at reduced coord.    0.8889    0.4444    0.9000
      Minimum=    2.0513E-03  at reduced coord.    0.0000    0.0000    0.1667
   Integrated=    1.6000E+01
  rhotov : is_hybrid_ncpp= F
  rhotov : n3xccc=        9720
 ETOT  5  -20.270828222514    -3.877E-11 5.450E-13 1.343E-09 5.303E-07 2.287E-06
 scprqt: <Vxc>= -3.4430034E-01 hartree

 Pulay update with  4 previous iterations:
 mixing of old trial potential : alpha(m:m-4)=   1.05      0.148E-02 -0.488E-01 -0.651E-03  0.918E-03
 scfcv_core: previous iteration took 00 [s]

 ITER STEP NUMBER     6
 vtorho : nnsclo_now=1, note that nnsclo,dbl_nnsclo,istep=0 0 6
 Total charge density [el/Bohr^3]
      Maximum=    9.5997E-02  at reduced coord.    0.8889    0.4444    0.9000
      Minimum=    2.0513E-03  at reduced coord.    0.0000    0.0000    0.1667
   Integrated=    1.6000E+01
  rhotov : is_hybrid_ncpp= F
  rhotov : n3xccc=        9720
 ETOT  6  -20.270828222516    -1.148E-12 6.946E-15 2.086E-11 1.137E-07 2.400E-06
 scprqt: <Vxc>= -3.4430037E-01 hartree

 Pulay update with  5 previous iterations:
 mixing of old trial potential : alpha(m:m-4)=   1.23     -0.227     -0.144E-01  0.975E-02  0.565E-03
 scfcv_core: previous iteration took 00 [s]

 ITER STEP NUMBER     7
 vtorho : nnsclo_now=1, note that nnsclo,dbl_nnsclo,istep=0 0 7
 Total charge density [el/Bohr^3]
      Maximum=    9.5997E-02  at reduced coord.    0.8889    0.4444    0.9000
      Minimum=    2.0513E-03  at reduced coord.    0.0000    0.0000    0.1667
   Integrated=    1.6000E+01
  rhotov : is_hybrid_ncpp= F
  rhotov : n3xccc=        9720
 ETOT  7  -20.270828222516    -1.421E-14 3.161E-17 3.419E-13 2.713E-09 2.403E-06
 scprqt: <Vxc>= -3.4430037E-01 hartree

 Pulay update with  6 previous iterations:
 mixing of old trial potential : alpha(m:m-4)=   1.23     -0.264      0.357E-01  0.339E-02 -0.158E-02
 scfcv_core: previous iteration took 00 [s]

 ITER STEP NUMBER     8
 vtorho : nnsclo_now=1, note that nnsclo,dbl_nnsclo,istep=0 0 8
 Total charge density [el/Bohr^3]
      Maximum=    9.5997E-02  at reduced coord.    0.8889    0.4444    0.9000
      Minimum=    2.0513E-03  at reduced coord.    0.0000    0.0000    0.1667
   Integrated=    1.6000E+01
  rhotov : is_hybrid_ncpp= F
  rhotov : n3xccc=        9720
 ETOT  8  -20.270828222516    -1.172E-13 6.688E-19 6.515E-15 4.173E-10 2.403E-06
 scprqt: <Vxc>= -3.4430037E-01 hartree

 Pulay update with  7 previous iterations:
 mixing of old trial potential : alpha(m:m-4)=   1.24     -0.274      0.334E-01 -0.327E-02 -0.512E-03
 scfcv_core: previous iteration took 00 [s]

 ITER STEP NUMBER     9
 vtorho : nnsclo_now=1, note that nnsclo,dbl_nnsclo,istep=0 0 9
 Total charge density [el/Bohr^3]
      Maximum=    9.5997E-02  at reduced coord.    0.8889    0.4444    0.9000
      Minimum=    2.0513E-03  at reduced coord.    0.0000    0.0000    0.1667
   Integrated=    1.6000E+01
  rhotov : is_hybrid_ncpp= F
  rhotov : n3xccc=        9720
 ETOT  9  -20.270828222516    -1.776E-14 1.425E-20 1.881E-17 8.983E-11 2.403E-06
 scprqt: <Vxc>= -3.4430037E-01 hartree

 Pulay update with  7 previous iterations:
 mixing of old trial potential : alpha(m:m-4)=   1.13     -0.153      0.243E-01 -0.205E-02  0.952E-04
 scfcv_core: previous iteration took 00 [s]

 ITER STEP NUMBER    10
 vtorho : nnsclo_now=1, note that nnsclo,dbl_nnsclo,istep=0 0 10
 Total charge density [el/Bohr^3]
      Maximum=    9.5997E-02  at reduced coord.    0.8889    0.4444    0.9000
      Minimum=    2.0513E-03  at reduced coord.    0.0000    0.0000    0.1667
   Integrated=    1.6000E+01
  rhotov : is_hybrid_ncpp= F
  rhotov : n3xccc=        9720
 ETOT 10  -20.270828222516     1.066E-13 5.688E-23 1.499E-19 1.588E-12 2.403E-06
 scprqt: <Vxc>= -3.4430037E-01 hartree

 At SCF step   10       vres2   =  1.50E-19 < tolvrs=  1.00E-18 =>converged.

 Cartesian components of stress tensor (hartree/bohr^3)
  sigma(1 1)= -3.50285300E-05  sigma(3 2)=  0.00000000E+00
  sigma(2 2)= -3.50285300E-05  sigma(3 1)=  0.00000000E+00
  sigma(3 3)= -1.99514057E-05  sigma(2 1)=  0.00000000E+00

 fftdatar_write: About to write data to: telast_1o_DS1_TIM3_DEN with iomode IO_MODE_FORTRAN
 IO operation completed. cpu_time:       0.0 [s], walltime:       0.0 [s]
 Write iteration in HIST netCDF file

---OUTPUT-----------------------------------------------------------------------

 Cartesian coordinates (xcart) [bohr]
 -2.16506350946110E+00  3.75000000000000E+00  0.00000000000000E+00
  2.16506350946110E+00  3.75000000000000E+00  6.13169400000000E+00
 -2.16506350946110E+00  3.75000000000000E+00  4.60431195569673E+00
  2.16506350946110E+00  3.75000000000000E+00  1.07360059556967E+01
 Reduced coordinates (xred)
  3.33333333333333E-01  6.66666666666667E-01  0.00000000000000E+00
  6.66666666666667E-01  3.33333333333333E-01  5.00000000000000E-01
  3.33333333333333E-01  6.66666666666667E-01  3.75451869882672E-01
  6.66666666666667E-01  3.33333333333333E-01  8.75451869882672E-01
 Cartesian forces (fcart) [Ha/bohr]; max,rms= 2.40330E-06 1.38755E-06 (free atoms)
 -0.00000000000000E+00 -0.00000000000000E+00 -2.40330382442198E-06
 -0.00000000000000E+00 -0.00000000000000E+00 -2.40330382442198E-06
 -0.00000000000000E+00 -0.00000000000000E+00  2.40330382442198E-06
 -0.00000000000000E+00 -0.00000000000000E+00  2.40330382442198E-06
 Reduced forces (fred)
  0.00000000000000E+00 -0.00000000000000E+00  2.94726472807706E-05
  0.00000000000000E+00 -0.00000000000000E+00  2.94726472807706E-05
 -0.00000000000000E+00 -0.00000000000000E+00 -2.94726472807706E-05
 -0.00000000000000E+00 -0.00000000000000E+00 -2.94726472807706E-05
 Total energy (etotal) [Ha]= -2.02708282225156E+01

 Difference of energy with previous step (new-old):
           Absolute (Ha)=-2.46696E-06
           Relative     =-1.21700E-07
 fconv : at Broyd/MD step   3, gradients have not converged yet. 
  max grad (force/stress) = 2.4033E-06 > tolmxf= 1.0000E-06 ha/bohr (free atoms)

 EXIT:           1           1
 mover: previous time step took 01 [s]

--- Iteration: (4/5) Internal Cycle: (1/1)
--------------------------------------------------------------------------------

 Cartesian coordinates (xcart) [bohr]
 -2.16506350946110E+00  3.75000000000000E+00  0.00000000000000E+00
  2.16506350946110E+00  3.75000000000000E+00  6.13169400000000E+00
 -2.16506350946110E+00  3.75000000000000E+00  4.60433646938489E+00
  2.16506350946110E+00  3.75000000000000E+00  1.07360304693849E+01
 Reduced coordinates (xred)
  3.33333333333333E-01  6.66666666666667E-01  0.00000000000000E+00
  6.66666666666667E-01  3.33333333333333E-01  5.00000000000000E-01
  3.33333333333333E-01  6.66666666666667E-01  3.75453868815444E-01
  6.66666666666667E-01  3.33333333333333E-01  8.75453868815444E-01

---SELF-CONSISTENT-FIELD CONVERGENCE--------------------------------------------

 getcut: wavevector=  0.0000  0.0000  0.0000  ngfft=  18  18  30
         ecut(hartree)=      6.000   => boxcut(ratio)=   2.18103

 ITER STEP NUMBER     1
 vtorho : nnsclo_now=2, note that nnsclo,dbl_nnsclo,istep=0 0 1
 Total charge density [el/Bohr^3]
      Maximum=    9.5997E-02  at reduced coord.    0.8889    0.4444    0.9000
      Minimum=    2.0513E-03  at reduced coord.    0.0000    0.0000    0.1667
   Integrated=    1.6000E+01
  rhotov : is_hybrid_ncpp= F
  rhotov : n3xccc=        9720
 ETOT  1  -20.270828222545    -2.027E+01 4.501E-16 1.919E-08 1.125E-06 1.279E-06
 scprqt: <Vxc>= -3.4430032E-01 hartree

Simple mixing update:
  residual square of the potential :   7.6148782527907758E-009
 scfcv_core: previous iteration took 00 [s]

 ITER STEP NUMBER     2
 vtorho : nnsclo_now=2, note that nnsclo,dbl_nnsclo,istep=0 0 2
 Total charge density [el/Bohr^3]
      Maximum=    9.5997E-02  at reduced coord.    0.8889    0.4444    0.9000
      Minimum=    2.0513E-03  at reduced coord.    0.0000    0.0000    0.1667
   Integrated=    1.6000E+01
  rhotov : is_hybrid_ncpp= F
  rhotov : n3xccc=        9720
 ETOT  2  -20.270828222574    -2.894E-11 5.006E-17 4.853E-10 1.361E-06 8.272E-08
 scprqt: <Vxc>= -3.4430037E-01 hartree

 Pulay update with  1 previous iterations:
 mixing of old trial potential : alpha(m:m-4)=  0.899      0.101
 scfcv_core: previous iteration took 00 [s]

 ITER STEP NUMBER     3
 vtorho : nnsclo_now=1, note that nnsclo,dbl_nnsclo,istep=0 0 3
 Total charge density [el/Bohr^3]
      Maximum=    9.5997E-02  at reduced coord.    0.8889    0.4444    0.9000
      Minimum=    2.0513E-03  at reduced coord.    0.0000    0.0000    0.1667
   Integrated=    1.6000E+01
  rhotov : is_hybrid_ncpp= F
  rhotov : n3xccc=        9720
 ETOT  3  -20.270828222575    -8.775E-13 1.635E-14 2.142E-11 1.061E-07 2.339E-08
 scprqt: <Vxc>= -3.4430036E-01 hartree

 Pulay update with  2 previous iterations:
 mixing of old trial potential : alpha(m:m-4)=  0.988      0.309E-01 -0.193E-01
 scfcv_core: previous iteration took 00 [s]

 ITER STEP NUMBER     4
 vtorho : nnsclo_now=1, note that nnsclo,dbl_nnsclo,istep=0 0 4
 Total charge density [el/Bohr^3]
      Maximum=    9.5997E-02  at reduced coord.    0.8889    0.4444    0.9000
      Minimum=    2.0513E-03  at reduced coord.    0.0000    0.0000    0.1667
   Integrated=    1.6000E+01
  rhotov : is_hybrid_ncpp= F
  rhotov : n3xccc=        9720
 ETOT  4  -20.270828222575     8.171E-14 2.195E-16 9.813E-13 1.069E-08 1.270E-08
 scprqt: <Vxc>= -3.4430036E-01 hartree

 Pulay update with  3 previous iterations:
 mixing of old trial potential : alpha(m:m-4)=   1.05     -0.113E-01 -0.325E-01 -0.499E-02
 scfcv_core: previous iteration took 00 [s]

 ITER STEP NUMBER     5
 vtorho : nnsclo_now=1, note that nnsclo,dbl_nnsclo,istep=0 0 5
 Total charge density [el/Bohr^3]
      Maximum=    9.5997E-02  at reduced coord.    0.8889    0.4444    0.9000
      Minimum=    2.0513E-03  at reduced coord.    0.0000    0.0000    0.1667
   Integrated=    1.6000E+01
  rhotov : is_hybrid_ncpp= F
  rhotov : n3xccc=        9720
 ETOT  5  -20.270828222575    -1.741E-13 1.314E-17 3.222E-14 2.602E-09 1.010E-08
 scprqt: <Vxc>= -3.4430036E-01 hartree

 Pulay update with  4 previous iterations:
 mixing of old trial potential : alpha(m:m-4)=   1.05      0.785E-03 -0.486E-01 -0.620E-03  0.917E-03
 scfcv_core: previous iteration took 00 [s]

 ITER STEP NUMBER     6
 vtorho : nnsclo_now=1, note that nnsclo,dbl_nnsclo,istep=0 0 6
 Total charge density [el/Bohr^3]
      Maximum=    9.5997E-02  at reduced coord.    0.8889    0.4444    0.9000
      Minimum=    2.0513E-03  at reduced coord.    0.0000    0.0000    0.1667
   Integrated=    1.6000E+01
  rhotov : is_hybrid_ncpp= F
  rhotov : n3xccc=        9720
 ETOT  6  -20.270828222575     1.172E-13 1.662E-19 5.021E-16 5.567E-10 1.066E-08
 scprqt: <Vxc>= -3.4430036E-01 hartree

 Pulay update with  5 previous iterations:
 mixing of old trial potential : alpha(m:m-4)=   1.23     -0.227     -0.144E-01  0.972E-02  0.562E-03
 scfcv_core: previous iteration took 00 [s]

 ITER STEP NUMBER     7
 vtorho : nnsclo_now=1, note that nnsclo,dbl_nnsclo,istep=0 0 7
 Total charge density [el/Bohr^3]
      Maximum=    9.5997E-02  at reduced coord.    0.8889    0.4444    0.9000
      Minimum=    2.0513E-03  at reduced coord.    0.0000    0.0000    0.1667
   Integrated=    1.6000E+01
  rhotov : is_hybrid_ncpp= F
  rhotov : n3xccc=        9720
 ETOT  7  -20.270828222575    -6.750E-14 7.612E-22 8.262E-18 1.283E-11 1.067E-08
 scprqt: <Vxc>= -3.4430036E-01 hartree

 Pulay update with  6 previous iterations:
 mixing of old trial potential : alpha(m:m-4)=   1.23     -0.264      0.355E-01  0.343E-02 -0.157E-02
 scfcv_core: previous iteration took 00 [s]

 ITER STEP NUMBER     8
 vtorho : nnsclo_now=1, note that nnsclo,dbl_nnsclo,istep=0 0 8
 Total charge density [el/Bohr^3]
      Maximum=    9.5997E-02  at reduced coord.    0.8889    0.4444    0.9000
      Minimum=    2.0513E-03  at reduced coord.    0.0000    0.0000    0.1667
   Integrated=    1.6000E+01
  rhotov : is_hybrid_ncpp= F
  rhotov : n3xccc=        9720
 ETOT  8  -20.270828222575     1.386E-13 1.613E-23 1.568E-19 2.139E-12 1.067E-08
 scprqt: <Vxc>= -3.4430036E-01 hartree

 At SCF step    8       vres2   =  1.57E-19 < tolvrs=  1.00E-18 =>converged.

 Cartesian components of stress tensor (hartree/bohr^3)
  sigma(1 1)= -3.50364062E-05  sigma(3 2)=  0.00000000E+00
  sigma(2 2)= -3.50364062E-05  sigma(3 1)=  0.00000000E+00
  sigma(3 3)= -1.99359243E-05  sigma(2 1)=  0.00000000E+00

 fftdatar_write: About to write data to: telast_1o_DS1_TIM4_DEN with iomode IO_MODE_FORTRAN
 IO operation completed. cpu_time:       0.0 [s], walltime:       0.0 [s]
 Write iteration in HIST netCDF file

---OUTPUT-----------------------------------------------------------------------

 Cartesian coordinates (xcart) [bohr]
 -2.16506350946110E+00  3.75000000000000E+00  0.00000000000000E+00
  2.16506350946110E+00  3.75000000000000E+00  6.13169400000000E+00
 -2.16506350946110E+00  3.75000000000000E+00  4.60433646938489E+00
  2.16506350946110E+00  3.75000000000000E+00  1.07360304693849E+01
 Reduced coordinates (xred)
  3.33333333333333E-01  6.66666666666667E-01  0.00000000000000E+00
  6.66666666666667E-01  3.33333333333333E-01  5.00000000000000E-01
  3.33333333333333E-01  6.66666666666667E-01  3.75453868815444E-01
  6.66666666666667E-01  3.33333333333333E-01  8.75453868815444E-01
 Cartesian forces (fcart) [Ha/bohr]; max,rms= 1.06704E-08 6.16058E-09 (free atoms)
 -2.02421802658899E-32  3.50604846764894E-32 -1.06704421698812E-08
 -2.02421802658899E-32  3.50604846764894E-32 -1.06704421698812E-08
  6.07265407976697E-32 -1.05181454029468E-31  1.06704421698812E-08
 -2.02421802658899E-32  3.50604846764894E-32  1.06704421698812E-08
 Reduced forces (fred)
 -2.18952885050753E-47 -2.62953635073671E-31  1.30855772460815E-07
 -2.18952885050753E-47 -2.62953635073671E-31  1.30855772460815E-07
 -4.37905770101505E-47  7.88860905221012E-31 -1.30855772460815E-07
 -2.18952885050753E-47 -2.62953635073671E-31 -1.30855772460815E-07
 Total energy (etotal) [Ha]= -2.02708282225745E+01

 Difference of energy with previous step (new-old):
           Absolute (Ha)=-5.88649E-11
           Relative     =-2.90392E-12

 At Broyd/MD step   4, gradients are converged : 
  max grad (force/stress) = 1.0670E-08 < tolmxf= 1.0000E-06 ha/bohr (free atoms)

================================================================================

 ----iterations are completed or convergence reached----


 === Gap info ===
Not enough states to calculate the band gap.
 Mean square residual over all n,k,spin=   71.210E-25; max=  16.134E-24
   0.0000  0.0000  0.1250    1  1.45928E-23 kpt; spin; max resid(k); each band:
  1.25E-23 1.03E-23 1.05E-23 1.41E-25 1.41E-25 1.46E-23 2.37E-25 2.37E-25
   0.2500  0.0000  0.1250    1  1.46523E-23 kpt; spin; max resid(k); each band:
  1.47E-23 9.87E-24 1.11E-23 4.64E-24 4.73E-24 7.48E-25 1.32E-23 1.01E-25
   0.5000  0.0000  0.1250    1  1.19848E-23 kpt; spin; max resid(k); each band:
  5.48E-24 9.64E-24 5.09E-24 3.94E-24 1.20E-23 4.61E-25 7.61E-24 7.30E-25
   0.2500  0.2500  0.1250    1  1.61344E-23 kpt; spin; max resid(k); each band:
  9.34E-24 7.70E-24 6.21E-24 1.35E-23 1.61E-23 5.27E-24 4.04E-24 7.74E-24
   0.0000  0.0000  0.3750    1  1.08954E-23 kpt; spin; max resid(k); each band:
  1.08E-23 9.99E-24 1.09E-23 1.09E-23 2.58E-25 2.58E-25 1.06E-25 1.06E-25
   0.2500  0.0000  0.3750    1  1.24335E-23 kpt; spin; max resid(k); each band:
  1.24E-23 1.09E-23 9.71E-24 9.21E-24 4.68E-24 7.35E-25 9.00E-24 7.53E-25
   0.5000  0.0000  0.3750    1  1.46214E-23 kpt; spin; max resid(k); each band:
  8.53E-24 9.77E-24 8.11E-24 4.90E-24 1.46E-23 4.61E-25 5.54E-25 1.26E-23
   0.2500  0.2500  0.3750    1  1.31071E-23 kpt; spin; max resid(k); each band:
  1.08E-23 9.49E-24 7.03E-24 9.00E-24 1.31E-23 7.57E-24 7.76E-24 8.19E-24

 outwf: write wavefunction to file telast_1o_DS1_WFK, with iomode -1
 outwf with iomode: -1, cpu_time:     0.00[s], walltime:     0.00 [s]
 prteigrs : about to open file telast_1o_DS1_EIG
 Fermi (or HOMO) energy (hartree) =   0.08960   Average Vxc (hartree)=  -0.34430
 Eigenvalues (hartree) for nkpt=   8  k points:
 kpt#   1, nband=  8, wtk=  0.03125, kpt=  0.0000  0.0000  0.1250 (reduced coord)
  -0.35441   -0.30451   -0.11638    0.05456    0.05456    0.06898    0.08960    0.08960
 kpt#   2, nband=  8, wtk=  0.18750, kpt=  0.2500  0.0000  0.1250 (reduced coord)
  -0.33488   -0.29105   -0.10409   -0.03740   -0.01740    0.02567    0.06179    0.07010
 kpt#   3, nband=  8, wtk=  0.09375, kpt=  0.5000  0.0000  0.1250 (reduced coord)
  -0.30224   -0.28158   -0.11861   -0.08998   -0.03742    0.00650    0.01722    0.05379
 kpt#   4, nband=  8, wtk=  0.18750, kpt=  0.2500  0.2500  0.1250 (reduced coord)
  -0.30433   -0.28015   -0.10522   -0.07797   -0.03941   -0.03105    0.01178    0.02755
 kpt#   5, nband=  8, wtk=  0.03125, kpt=  0.0000  0.0000  0.3750 (reduced coord)
  -0.34301   -0.32314   -0.07235   -0.00434    0.06338    0.06338    0.07768    0.07768
 kpt#   6, nband=  8, wtk=  0.18750, kpt=  0.2500  0.0000  0.3750 (reduced coord)
  -0.32450   -0.30690   -0.08018   -0.04849   -0.00793    0.03607    0.03812    0.05387
 kpt#   7, nband=  8, wtk=  0.09375, kpt=  0.5000  0.0000  0.3750 (reduced coord)
  -0.29608   -0.28740   -0.12258   -0.11102    0.00336    0.01742    0.03628    0.03681
 kpt#   8, nband=  8, wtk=  0.18750, kpt=  0.2500  0.2500  0.3750 (reduced coord)
  -0.29750   -0.28743   -0.10864   -0.09683   -0.03031   -0.00993    0.01223    0.04541
 Total charge density [el/Bohr^3]
      Maximum=    9.5997E-02  at reduced coord.    0.8889    0.4444    0.9000
 Next maximum=    9.5997E-02  at reduced coord.    0.5556    0.4444    0.9000
      Minimum=    2.0513E-03  at reduced coord.    0.0000    0.0000    0.1667
 Next minimum=    2.0513E-03  at reduced coord.    0.0000    0.0000    0.6667
   Integrated=    1.6000E+01

 Cartesian components of stress tensor (hartree/bohr^3)
  sigma(1 1)= -3.50364062E-05  sigma(3 2)=  0.00000000E+00
  sigma(2 2)= -3.50364062E-05  sigma(3 1)=  0.00000000E+00
  sigma(3 3)= -1.99359243E-05  sigma(2 1)=  0.00000000E+00

-Cartesian components of stress tensor (GPa)         [Pressure=  8.8272E-01 GPa]
- sigma(1 1)= -1.03080649E+00  sigma(3 2)=  0.00000000E+00
- sigma(2 2)= -1.03080649E+00  sigma(3 1)=  0.00000000E+00
- sigma(3 3)= -5.86535045E-01  sigma(2 1)=  0.00000000E+00

================================================================================
== DATASET  2 ==================================================================
-   nproc =    4


--- !COMMENT
src_file: m_xgScalapack.F90
src_line: 251
message: |
    xgScalapack in auto mode
...

 mkfilename : getwfk/=0, take file _WFK from output of DATASET   1.

 find_getdtset : getxred/=0, take data from output of dataset with index  1.


 getdim_nloc : deduce lmnmax  =   4, lnmax  =   2,
                      lmnmaxso=   4, lnmaxso=   2.
 Exchange-correlation functional for the present dataset will be:
  LDA: new Teter (4/93) with spin-polarized option - ixc=1
 Citation for XC functional:
  S. Goedecker, M. Teter, J. Huetter, PRB 54, 1703 (1996)

 Unit cell volume ucvol=  5.9739781E+02 bohr^3
 Angles (23,13,12)=  9.00000000E+01  9.00000000E+01  1.20000000E+02 degrees

 getcut: wavevector=  0.0000  0.0000  0.0000  ngfft=  18  18  30
         ecut(hartree)=      6.615   => boxcut(ratio)=   2.07717
 kpgio: loop on k-points done in parallel
- pspini: atom type   1  psp file is ../../../../../Psps_for_tests/13al.pspnc
- pspatm: opening atomic psp file    ../../../../../Psps_for_tests/13al.pspnc
-  Troullier-Martins psp for element  Al        Thu Oct 27 17:31:05 EDT 1994
- 13.00000   3.00000    940714                znucl, zion, pspdat
    1    1    2    2      2001   0.00000      pspcod,pspxc,lmax,lloc,mmax,r2well
    0   4.657  11.889    1   2.2761078        l,e99.0,e99.9,nproj,rcpsp
   0.00000000   0.00000000   0.00000000   0.00000000     rms, ekb1, ekb2, epsatm
    1   1.829   2.761    1   2.2761078        l,e99.0,e99.9,nproj,rcpsp
   0.00000000   0.00000000   0.00000000   0.00000000     rms, ekb1, ekb2, epsatm
    2   0.000   0.000    0   2.2761078        l,e99.0,e99.9,nproj,rcpsp
   0.00000000   0.00000000   0.00000000   0.00000000     rms, ekb1, ekb2, epsatm
    2.09673076353074    0.12648111154518    1.01742091001718   rchrg,fchrg,qchrg
  pspatm : epsatm=    0.22155260
         --- l  ekb(1:nproj) -->
             0    2.540658
             1    1.353815
 pspatm: atomic psp has been read  and splines computed

- pspini: atom type   2  psp file is ../../../../../Psps_for_tests/33as.pspnc
- pspatm: opening atomic psp file    ../../../../../Psps_for_tests/33as.pspnc
-  Troullier-Martins psp for element  As        Thu Oct 27 17:37:14 EDT 1994
- 33.00000   5.00000    940714                znucl, zion, pspdat
    1    1    1    1      2001   0.00000      pspcod,pspxc,lmax,lloc,mmax,r2well
    0   4.772  10.829    1   2.5306160        l,e99.0,e99.9,nproj,rcpsp
   0.00000000   0.00000000   0.00000000   0.00000000     rms, ekb1, ekb2, epsatm
    1   2.745   5.580    0   2.5306160        l,e99.0,e99.9,nproj,rcpsp
   0.00000000   0.00000000   0.00000000   0.00000000     rms, ekb1, ekb2, epsatm
    2.05731715564010    0.36322996461007    2.76014815959125   rchrg,fchrg,qchrg
  pspatm : epsatm=   27.20579911
         --- l  ekb(1:nproj) -->
             0    0.838751
 pspatm: atomic psp has been read  and splines computed

 ==== Info on pseudopotentials ====
  Norm-conserving pseudopotentials
  Number of pseudopotentials ..    2
  Number of types of atoms   ..    2
  Scalar calculation (no spin-orbit term)
  Nonlocal part applied using Legendre polynomials
  Max number of non-local projectors over l and type   1
  Highest angular momentum +1 .......   3
  Max number of (l,n)   components ..   2
  Max number of (l,m,n) components ..   2

 Pseudo-Core Charge Info: 
   Number of radial points for pseudo-core charge .. 2501
   XC core-correction treatment (optnlxccc) ........    1
   Radius for pseudo-core charge for each type ..... 

  - Atom type    1 has pseudo-core radius ..  6.2902
  - Atom type    2 has pseudo-core radius ..  6.1720

 Info on the Q-grid used for form factors in spline form: 
   Number of q-points for radial functions ffspl ..   3001
   Number of q-points for vlspl ...................   3001
   vloc is computed in Reciprocal Space
   model core charge treated in real-space

  XC functional for type 1 is 1
  Pseudo valence available: no
  XC functional for type 2 is 1
  Pseudo valence available: no

inwffil: examining the header of disk file telast_1o_DS1_WFK

================================================================================

          - hdr_check: checking restart file header for consistency -


        current calculation                         restart file
        -------------------                         ------------

  calculation expects a wf_planewave    |  input file contains a wf_planewave
. ABINIT  code version 8.10.3           |  ABINIT  code version 8.10.3
. date 20191104 bantot   64 natom    4  |  date 20191104 bantot   64 natom    4
  nkpt   8 nsym 12 ngfft  18,  18,  30  |  nkpt   8 nsym 12 ngfft  18,  18,  30
  ntypat  2 ecut_eff   6.6150000        |  ntypat  2 ecut_eff   6.0000000
  usepaw  0                             |  usepaw  0
  usewvl  0                             |  usewvl  0
  rprimd:                               |  rprimd:
     6.4951905   3.7500000   0.0000000  |     6.4951905   3.7500000   0.0000000
    -6.4951905   3.7500000   0.0000000  |    -6.4951905   3.7500000   0.0000000
     0.0000000   0.0000000  12.2633880  |     0.0000000   0.0000000  12.2633880

--- !WARNING
src_file: m_hdr.F90
src_line: 4102
message: |
    input ecut_eff=    6.615000 /= disk file ecut_eff=    6.000000.
...

  nband:                                |  nband:
     8   8   8   8   8   8   8   8      |     8   8   8   8   8   8   8   8
  symafm:                               |  symafm:
    1  1  1  1  1  1  1  1  1  1  1  1  |    1  1  1  1  1  1  1  1  1  1  1  1
  symrel:                               |  symrel:
    1  0  0  0  1  0  0  0  1           |    1  0  0  0  1  0  0  0  1
    0  1  0  1  0  0  0  0  1           |    0  1  0  1  0  0  0  0  1
    1  1  0 -1  0  0  0  0  1           |    1  1  0 -1  0  0  0  0  1
   -1  0  0  1  1  0  0  0  1           |   -1  0  0  1  1  0  0  0  1
    0  1  0 -1 -1  0  0  0  1           |    0  1  0 -1 -1  0  0  0  1
   -1 -1  0  0  1  0  0  0  1           |   -1 -1  0  0  1  0  0  0  1
   -1  0  0  0 -1  0  0  0  1           |   -1  0  0  0 -1  0  0  0  1
    0 -1  0 -1  0  0  0  0  1           |    0 -1  0 -1  0  0  0  0  1
   -1 -1  0  1  0  0  0  0  1           |   -1 -1  0  1  0  0  0  0  1
    1  0  0 -1 -1  0  0  0  1           |    1  0  0 -1 -1  0  0  0  1
    0 -1  0  1  1  0  0  0  1           |    0 -1  0  1  1  0  0  0  1
    1  1  0  0 -1  0  0  0  1           |    1  1  0  0 -1  0  0  0  1
  typat:                                |  typat:
    1  1  2  2                          |    1  1  2  2
  so_psp  :                             |  so_psp  :
    1  1                                |    1  1
  istwfk:                               |  istwfk:
    1  1  1  1  1  1  1  1              |    1  1  1  1  1  1  1  1
  kpt:                                  |  kpt:
     0.0000000   0.0000000   0.1250000  |     0.0000000   0.0000000   0.1250000
     0.2500000   0.0000000   0.1250000  |     0.2500000   0.0000000   0.1250000
     0.5000000   0.0000000   0.1250000  |     0.5000000   0.0000000   0.1250000
     0.2500000   0.2500000   0.1250000  |     0.2500000   0.2500000   0.1250000
     0.0000000   0.0000000   0.3750000  |     0.0000000   0.0000000   0.3750000
  wtk:                                  |  wtk:
    0.031  0.188  0.094  0.188  0.031   |    0.031  0.188  0.094  0.188  0.031
  occ:                                  |  occ:
   2.0 2.0 2.0 2.0 2.0 2.0 2.0 2.0 2.0  |   2.0 2.0 2.0 2.0 2.0 2.0 2.0 2.0 2.0
   2.0 2.0 2.0 2.0 2.0 2.0 2.0 2.0 2.0  |   2.0 2.0 2.0 2.0 2.0 2.0 2.0 2.0 2.0
   2.0 2.0 2.0 2.0 2.0 2.0 2.0 2.0 2.0  |   2.0 2.0 2.0 2.0 2.0 2.0 2.0 2.0 2.0
   2.0 2.0 2.0 2.0 2.0 2.0 2.0 2.0 2.0  |   2.0 2.0 2.0 2.0 2.0 2.0 2.0 2.0 2.0
   2.0 2.0 2.0 2.0 2.0 2.0 2.0 2.0 2.0  |   2.0 2.0 2.0 2.0 2.0 2.0 2.0 2.0 2.0
  tnons:                                |  tnons:
     0.0000000   0.0000000   0.0000000  |     0.0000000   0.0000000   0.0000000
     0.0000000   0.0000000   0.5000000  |     0.0000000   0.0000000   0.5000000
    -0.0000000   0.0000000   0.5000000  |    -0.0000000   0.0000000   0.5000000
     0.0000000   0.0000000   0.0000000  |     0.0000000   0.0000000   0.0000000
     0.0000000  -0.0000000   0.0000000  |     0.0000000  -0.0000000   0.0000000
     0.0000000   0.0000000   0.5000000  |     0.0000000   0.0000000   0.5000000
     0.0000000   0.0000000   0.5000000  |     0.0000000   0.0000000   0.5000000
     0.0000000   0.0000000   0.0000000  |     0.0000000   0.0000000   0.0000000
     0.0000000   0.0000000   0.0000000  |     0.0000000   0.0000000   0.0000000
    -0.0000000   0.0000000   0.5000000  |    -0.0000000   0.0000000   0.5000000
     0.0000000   0.0000000   0.5000000  |     0.0000000   0.0000000   0.5000000
     0.0000000  -0.0000000   0.0000000  |     0.0000000  -0.0000000   0.0000000
   znucl:                               |   znucl:
   13.00 33.00                          |   13.00 33.00
  pseudopotential atom type  1:         |  pseudopotential atom type  1:
  pspso   0 pspxc   1                   |  pspso   0 pspxc   1
  pspdat 940714 pspcod    1 zion   3.0  |  pspdat 940714 pspcod    1 zion   3.0
  pseudopotential atom type  2:         |  pseudopotential atom type  2:
  pspso   0 pspxc   1                   |  pspso   0 pspxc   1
  pspdat 940714 pspcod    1 zion   5.0  |  pspdat 940714 pspcod    1 zion   5.0
  xred:                                 |  xred:
     0.3333333   0.6666667   0.0000000  |     0.3333333   0.6666667   0.0000000
     0.6666667   0.3333333   0.5000000  |     0.6666667   0.3333333   0.5000000
     0.3333333   0.6666667   0.3754539  |     0.3333333   0.6666667   0.3754539
     0.6666667   0.3333333   0.8754539  |     0.6666667   0.3333333   0.8754539

--- !WARNING
src_file: m_hdr.F90
src_line: 4595
message: |
    Restart of self-consistent calculation need translated wavefunctions.
...

  Indeed, critical differences between current calculation and
  restart file have been detected in:
        * the plane-wave cutoff
================================================================================
-inwffil : will read wavefunctions from disk file telast_1o_DS1_WFK
 initwf: disk file gives npw= 397 nband= 8 for kpt number= 1
 initwf: 8 bands have been initialized from disk
 initwf: disk file gives npw= 418 nband= 8 for kpt number= 2
 initwf: 8 bands have been initialized from disk
- newkpt: read input wf with ikpt,npw=   1     397, make ikpt,npw=   1     494
- newkpt: read input wf with ikpt,npw=   2     418, make ikpt,npw=   2     486
_setup2: Arith. and geom. avg. npw (full set) are     485.938     485.925
mkrho: echo density (plane-wave part only)
 Total charge density [el/Bohr^3]
      Maximum=    9.5997E-02  at reduced coord.    0.8889    0.4444    0.9000
      Minimum=    2.0513E-03  at reduced coord.    0.0000    0.0000    0.1667
   Integrated=    1.6000E+01

================================================================================

=== [ionmov= 2] Broyden-Fletcher-Goldfard-Shanno method (forces)            
================================================================================

--- Iteration: ( 1/12) Internal Cycle: (1/1)
--------------------------------------------------------------------------------

 Cartesian coordinates (xcart) [bohr]
 -2.16506350946110E+00  3.75000000000000E+00  0.00000000000000E+00
  2.16506350946110E+00  3.75000000000000E+00  6.13169400000000E+00
 -2.16506350946110E+00  3.75000000000000E+00  4.60433646938489E+00
  2.16506350946110E+00  3.75000000000000E+00  1.07360304693849E+01
 Reduced coordinates (xred)
  3.33333333333333E-01  6.66666666666667E-01  0.00000000000000E+00
  6.66666666666667E-01  3.33333333333333E-01  5.00000000000000E-01
  3.33333333333333E-01  6.66666666666667E-01  3.75453868815444E-01
  6.66666666666667E-01  3.33333333333333E-01  8.75453868815444E-01
 Scale of Primitive Cell (acell) [bohr]
  7.50000000000000E+00  7.50000000000000E+00  1.22633880000000E+01
 Real space primitive translations (rprimd) [bohr]
  6.49519052838329E+00  3.75000000000000E+00  0.00000000000000E+00
 -6.49519052838329E+00  3.75000000000000E+00  0.00000000000000E+00
  0.00000000000000E+00  0.00000000000000E+00  1.22633880000000E+01
 Unitary Cell Volume (ucvol) [Bohr^3]=  5.97397811876170E+02
 Angles (23,13,12)= [degrees]
  9.00000000000000E+01  9.00000000000000E+01  1.20000000000000E+02
 Lengths [Bohr]
  7.50000000000000E+00  7.50000000000000E+00  1.22633880000000E+01

---SELF-CONSISTENT-FIELD CONVERGENCE--------------------------------------------

 getcut: wavevector=  0.0000  0.0000  0.0000  ngfft=  18  18  30
         ecut(hartree)=      6.000   => boxcut(ratio)=   2.18103

 ITER STEP NUMBER     1
 vtorho : nnsclo_now=2, note that nnsclo,dbl_nnsclo,istep=0 0 1
 cgwf: converged with tan2th=     -3.2888E-16
 Total charge density [el/Bohr^3]
      Maximum=    9.5997E-02  at reduced coord.    0.8889    0.4444    0.9000
      Minimum=    2.0513E-03  at reduced coord.    0.0000    0.0000    0.1667
   Integrated=    1.6000E+01
  rhotov : is_hybrid_ncpp= F
  rhotov : n3xccc=        9720
 ETOT  1  -20.270828222574    -2.027E+01 7.878E-29 5.495E-21 1.067E-08 1.067E-08
 scprqt: <Vxc>= -3.4430036E-01 hartree

 At SCF step    1       vres2   =  5.49E-21 < tolvrs=  1.00E-18 =>converged.

 Cartesian components of stress tensor (hartree/bohr^3)
  sigma(1 1)= -3.50364064E-05  sigma(3 2)=  0.00000000E+00
[...]
 Total charge density [el/Bohr^3]
      Maximum=    9.5489E-02  at reduced coord.    0.8889    0.4444    0.9000
      Minimum=    1.9877E-03  at reduced coord.    0.0000    0.0000    0.1667
   Integrated=    1.6000E+01
  rhotov : is_hybrid_ncpp= F
  rhotov : n3xccc=        9720
 ETOT  7  -20.270943772573     4.619E-14 3.178E-22 1.543E-18 4.206E-12 7.306E-08
 scprqt: <Vxc>= -3.4268245E-01 hartree

 Pulay update with  6 previous iterations:
 mixing of old trial potential : alpha(m:m-4)=   1.20     -0.232      0.251E-01  0.337E-02 -0.119E-02
 scfcv_core: previous iteration took 00 [s]

 ITER STEP NUMBER     8
 vtorho : nnsclo_now=1, note that nnsclo,dbl_nnsclo,istep=0 0 8
 Total charge density [el/Bohr^3]
      Maximum=    9.5489E-02  at reduced coord.    0.8889    0.4444    0.9000
      Minimum=    1.9877E-03  at reduced coord.    0.0000    0.0000    0.1667
   Integrated=    1.6000E+01
  rhotov : is_hybrid_ncpp= F
  rhotov : n3xccc=        9720
 ETOT  8  -20.270943772573    -3.553E-14 2.949E-24 1.315E-20 7.539E-13 7.306E-08
 scprqt: <Vxc>= -3.4268245E-01 hartree

 At SCF step    8       vres2   =  1.32E-20 < tolvrs=  1.00E-18 =>converged.

 Cartesian components of stress tensor (hartree/bohr^3)
  sigma(1 1)= -3.76811602E-10  sigma(3 2)=  0.00000000E+00
  sigma(2 2)= -3.76811600E-10  sigma(3 1)=  0.00000000E+00
  sigma(3 3)=  7.81471563E-10  sigma(2 1)=  0.00000000E+00

 fftdatar_write: About to write data to: telast_1o_DS2_TIM11_DEN with iomode IO_MODE_FORTRAN
 IO operation completed. cpu_time:       0.0 [s], walltime:       0.0 [s]
 Write iteration in HIST netCDF file

---OUTPUT-----------------------------------------------------------------------

 Cartesian coordinates (xcart) [bohr]
 -2.17631167225248E+00  3.76948238944648E+00  0.00000000000000E+00
  2.17631167225248E+00  3.76948238944648E+00  6.13889775548093E+00
 -2.17631167225248E+00  3.76948238944648E+00  4.61750548144551E+00
  2.17631167225248E+00  3.76948238944648E+00  1.07564032369264E+01
 Reduced coordinates (xred)
  3.33333333333333E-01  6.66666666666667E-01  0.00000000000000E+00
  6.66666666666667E-01  3.33333333333333E-01  5.00000000000000E-01
  3.33333333333333E-01  6.66666666666667E-01  3.76085876110488E-01
  6.66666666666667E-01  3.33333333333333E-01  8.76085876110487E-01
 Cartesian forces (fcart) [Ha/bohr]; max,rms= 7.30559E-08 4.21788E-08 (free atoms)
 -2.42280013038888E-32 -4.19641292241805E-32  7.30558887302245E-08
 -2.42280013038888E-32 -4.19641292241805E-32  7.30558887302245E-08
 -2.42280013038888E-32 -4.19641292241805E-32 -7.30558887302245E-08
  7.26840039116665E-32  1.25892387672541E-31 -7.30558887302245E-08
 Reduced forces (fred)
  3.16366092198010E-31 -2.18952885050753E-47 -8.96965262701279E-07
  3.16366092198010E-31 -2.18952885050753E-47 -8.96965262701279E-07
  3.16366092198010E-31 -2.18952885050753E-47  8.96965262701279E-07
 -9.49098276594030E-31 -0.00000000000000E+00  8.96965262701279E-07
 Scale of Primitive Cell (acell) [bohr]
  7.53896477889297E+00  7.53896477889297E+00  1.22777955109619E+01
 Real space primitive translations (rprimd) [bohr]
  6.52893501675745E+00  3.76948238944648E+00  0.00000000000000E+00
 -6.52893501675745E+00  3.76948238944648E+00  0.00000000000000E+00
  0.00000000000000E+00  0.00000000000000E+00  1.22777955109619E+01
 Unitary Cell Volume (ucvol) [Bohr^3]=  6.04330420676700E+02
 Angles (23,13,12)= [degrees]
  9.00000000000000E+01  9.00000000000000E+01  1.20000000000000E+02
 Lengths [Bohr]
  7.53896477889297E+00  7.53896477889297E+00  1.22777955109619E+01
 Stress tensor in cartesian coordinates (strten) [Ha/bohr^3]
 -3.76811601886240E-10  0.00000000000000E+00  0.00000000000000E+00
  0.00000000000000E+00 -3.76811599717836E-10  0.00000000000000E+00
  0.00000000000000E+00  0.00000000000000E+00  7.81471563241626E-10
 Total energy (etotal) [Ha]= -2.02709437725734E+01

 Difference of energy with previous step (new-old):
           Absolute (Ha)=-1.33618E-11
           Relative     =-6.59158E-13

 At Broyd/MD step  11, gradients are converged : 
  max grad (force/stress) = 7.8147E-08 < tolmxf= 1.0000E-06 ha/bohr (free atoms)

================================================================================

 ----iterations are completed or convergence reached----


 === Gap info ===
Not enough states to calculate the band gap.
 Mean square residual over all n,k,spin=   92.702E-26; max=  29.489E-25
   0.0000  0.0000  0.1250    1  1.81326E-24 kpt; spin; max resid(k); each band:
  6.33E-25 1.11E-24 1.81E-24 4.12E-26 4.12E-26 9.27E-25 2.69E-26 2.69E-26
   0.2500  0.0000  0.1250    1  2.94894E-24 kpt; spin; max resid(k); each band:
  5.54E-25 7.35E-25 2.60E-24 2.95E-24 1.43E-24 1.79E-25 7.58E-25 1.73E-26
   0.5000  0.0000  0.1250    1  2.36234E-24 kpt; spin; max resid(k); each band:
  5.23E-25 1.52E-25 1.09E-24 2.36E-24 1.00E-24 1.46E-25 2.18E-24 1.53E-26
   0.2500  0.2500  0.1250    1  1.95005E-24 kpt; spin; max resid(k); each band:
  4.31E-25 2.73E-25 1.76E-24 1.43E-24 6.03E-25 1.95E-24 2.21E-25 1.15E-24
   0.0000  0.0000  0.3750    1  1.37881E-24 kpt; spin; max resid(k); each band:
  1.21E-24 1.38E-24 1.27E-24 1.09E-24 9.44E-26 9.44E-26 1.97E-26 1.97E-26
   0.2500  0.0000  0.3750    1  2.64900E-24 kpt; spin; max resid(k); each band:
  1.04E-24 1.27E-24 1.99E-24 1.05E-24 2.65E-24 1.69E-25 1.66E-24 1.72E-25
   0.5000  0.0000  0.3750    1  1.55742E-24 kpt; spin; max resid(k); each band:
  5.25E-25 4.10E-25 1.56E-24 1.39E-24 1.49E-24 1.45E-25 1.73E-25 1.05E-24
   0.2500  0.2500  0.3750    1  2.26597E-24 kpt; spin; max resid(k); each band:
  5.69E-25 7.02E-25 2.18E-24 9.38E-25 4.88E-25 6.53E-25 2.27E-24 4.86E-25

 outwf: write wavefunction to file telast_1o_DS2_WFK, with iomode -1
 outwf with iomode: -1, cpu_time:     0.00[s], walltime:     0.00 [s]
 prteigrs : about to open file telast_1o_DS2_EIG
 Fermi (or HOMO) energy (hartree) =   0.08616   Average Vxc (hartree)=  -0.34268
 Eigenvalues (hartree) for nkpt=   8  k points:
 kpt#   1, nband=  8, wtk=  0.03125, kpt=  0.0000  0.0000  0.1250 (reduced coord)
  -0.35501   -0.30563   -0.11714    0.05113    0.05113    0.06669    0.08616    0.08616
 kpt#   2, nband=  8, wtk=  0.18750, kpt=  0.2500  0.0000  0.1250 (reduced coord)
  -0.33586   -0.29258   -0.10547   -0.03924   -0.02013    0.02274    0.05953    0.06705
 kpt#   3, nband=  8, wtk=  0.09375, kpt=  0.5000  0.0000  0.1250 (reduced coord)
  -0.30400   -0.28360   -0.12000   -0.09157   -0.03886    0.00386    0.01546    0.05100
 kpt#   4, nband=  8, wtk=  0.18750, kpt=  0.2500  0.2500  0.1250 (reduced coord)
  -0.30598   -0.28219   -0.10698   -0.07993   -0.04120   -0.03242    0.00996    0.02544
 kpt#   5, nband=  8, wtk=  0.03125, kpt=  0.0000  0.0000  0.3750 (reduced coord)
  -0.34370   -0.32404   -0.07358   -0.00616    0.05993    0.05993    0.07422    0.07422
 kpt#   6, nband=  8, wtk=  0.18750, kpt=  0.2500  0.0000  0.3750 (reduced coord)
  -0.32559   -0.30819   -0.08220   -0.05101   -0.00951    0.03311    0.03645    0.05086
 kpt#   7, nband=  8, wtk=  0.09375, kpt=  0.5000  0.0000  0.3750 (reduced coord)
  -0.29789   -0.28933   -0.12394   -0.11248    0.00170    0.01474    0.03355    0.03500
 kpt#   8, nband=  8, wtk=  0.18750, kpt=  0.2500  0.2500  0.3750 (reduced coord)
  -0.29924   -0.28933   -0.11044   -0.09876   -0.03198   -0.01162    0.01059    0.04345
 Total charge density [el/Bohr^3]
      Maximum=    9.5489E-02  at reduced coord.    0.8889    0.4444    0.9000
 Next maximum=    9.5489E-02  at reduced coord.    0.5556    0.4444    0.9000
      Minimum=    1.9877E-03  at reduced coord.    0.0000    0.0000    0.1667
 Next minimum=    1.9877E-03  at reduced coord.    0.0000    0.0000    0.6667
   Integrated=    1.6000E+01

 Cartesian components of stress tensor (hartree/bohr^3)
  sigma(1 1)= -3.76811602E-10  sigma(3 2)=  0.00000000E+00
  sigma(2 2)= -3.76811600E-10  sigma(3 1)=  0.00000000E+00
  sigma(3 3)=  7.81471563E-10  sigma(2 1)=  0.00000000E+00

-Cartesian components of stress tensor (GPa)         [Pressure= -2.7311E-07 GPa]
- sigma(1 1)= -1.10861782E-05  sigma(3 2)=  0.00000000E+00
- sigma(2 2)= -1.10861781E-05  sigma(3 1)=  0.00000000E+00
- sigma(3 3)=  2.29916833E-05  sigma(2 1)=  0.00000000E+00

== END DATASET(S) ==============================================================
================================================================================
  
 -outvars: echo values of variables after computation  --------
 
 These variables are accessible in NetCDF format (telast_1o_OUT.nc)

            acell1     7.5000000000E+00  7.5000000000E+00  1.2263388000E+01 Bohr
            acell2     7.5389647789E+00  7.5389647789E+00  1.2277795511E+01 Bohr
              amu      2.69815390E+01  7.49215900E+01
           diemac      9.00000000E+00
          dilatmx1     1.00000000E+00
          dilatmx2     1.05000000E+00
             ecut      6.00000000E+00 Hartree
           ecutsm      5.00000000E-01 Hartree
           etotal1    -2.0270828223E+01
           etotal2    -2.0270943773E+01
            fcart1    -2.0242180266E-32  3.5060484676E-32 -1.0670442170E-08
                      -2.0242180266E-32  3.5060484676E-32 -1.0670442170E-08
                       6.0726540798E-32 -1.0518145403E-31  1.0670442170E-08
                      -2.0242180266E-32  3.5060484676E-32  1.0670442170E-08
            fcart2    -2.4228001304E-32 -4.1964129224E-32  7.3055888730E-08
                      -2.4228001304E-32 -4.1964129224E-32  7.3055888730E-08
                      -2.4228001304E-32 -4.1964129224E-32 -7.3055888730E-08
                       7.2684003912E-32  1.2589238767E-31 -7.3055888730E-08
-          fftalg         312
           getwfk1          0
           getwfk2         -1
          getxred1          0
          getxred2         -1
           iatfix        1    2
           ionmov           2
           jdtset        1    2
              kpt      0.00000000E+00  0.00000000E+00  1.25000000E-01
                       2.50000000E-01  0.00000000E+00  1.25000000E-01
                       5.00000000E-01  0.00000000E+00  1.25000000E-01
                       2.50000000E-01  2.50000000E-01  1.25000000E-01
                       0.00000000E+00  0.00000000E+00  3.75000000E-01
                       2.50000000E-01  0.00000000E+00  3.75000000E-01
                       5.00000000E-01  0.00000000E+00  3.75000000E-01
                       2.50000000E-01  2.50000000E-01  3.75000000E-01
         kptrlatt        4    0    0      0    4    0      0    0    4
P           mkmem           2
           natfix           2
            natom           4
            nband           8
           ndtset           2
            ngfft          18      18      30
             nkpt           8
            nstep          40
             nsym          12
            ntime1          5
            ntime2         12
           ntypat           2
              occ      2.000000  2.000000  2.000000  2.000000  2.000000  2.000000
                       2.000000  2.000000
          optcell1          0
          optcell2          2
        optforces           1
            rprim      8.6602540378E-01  5.0000000000E-01  0.0000000000E+00
                      -8.6602540378E-01  5.0000000000E-01  0.0000000000E+00
                       0.0000000000E+00  0.0000000000E+00  1.0000000000E+00
           shiftk      0.00000000E+00  0.00000000E+00  5.00000000E-01
          spgroup         186
           strten1    -3.5036406204E-05 -3.5036406204E-05 -1.9935924338E-05
                       0.0000000000E+00  0.0000000000E+00  0.0000000000E+00
           strten2    -3.7681160189E-10 -3.7681159972E-10  7.8147156324E-10
                       0.0000000000E+00  0.0000000000E+00  0.0000000000E+00
           symrel      1  0  0   0  1  0   0  0  1       0  1  0   1  0  0   0  0  1
                       1  1  0  -1  0  0   0  0  1      -1  0  0   1  1  0   0  0  1
                       0  1  0  -1 -1  0   0  0  1      -1 -1  0   0  1  0   0  0  1
                      -1  0  0   0 -1  0   0  0  1       0 -1  0  -1  0  0   0  0  1
                      -1 -1  0   1  0  0   0  0  1       1  0  0  -1 -1  0   0  0  1
                       0 -1  0   1  1  0   0  0  1       1  1  0   0 -1  0   0  0  1
            tnons      0.0000000  0.0000000  0.0000000     0.0000000  0.0000000  0.5000000
                      -0.0000000  0.0000000  0.5000000     0.0000000  0.0000000  0.0000000
                       0.0000000 -0.0000000  0.0000000     0.0000000  0.0000000  0.5000000
                       0.0000000  0.0000000  0.5000000     0.0000000  0.0000000  0.0000000
                       0.0000000  0.0000000  0.0000000    -0.0000000  0.0000000  0.5000000
                       0.0000000  0.0000000  0.5000000     0.0000000 -0.0000000  0.0000000
           tolmxf      1.00000000E-06
           tolvrs      1.00000000E-18
            typat      1  1  2  2
              wtk        0.03125    0.18750    0.09375    0.18750    0.03125    0.18750
                         0.09375    0.18750
           xangst1    -1.1457022644E+00  1.9844145322E+00  0.0000000000E+00
                       1.1457022644E+00  1.9844145322E+00  3.2447527148E+00
                      -1.1457022644E+00  1.9844145322E+00  2.4365099203E+00
                       1.1457022644E+00  1.9844145322E+00  5.6812626351E+00
           xangst2    -1.1516545357E+00  1.9947241687E+00  0.0000000000E+00
                       1.1516545357E+00  1.9947241687E+00  3.2485647781E+00
                      -1.1516545357E+00  1.9947241687E+00  2.4434786613E+00
                       1.1516545357E+00  1.9947241687E+00  5.6920434394E+00
            xcart1    -2.1650635095E+00  3.7500000000E+00  0.0000000000E+00
                       2.1650635095E+00  3.7500000000E+00  6.1316940000E+00
                      -2.1650635095E+00  3.7500000000E+00  4.6043364694E+00
                       2.1650635095E+00  3.7500000000E+00  1.0736030469E+01
            xcart2    -2.1763116723E+00  3.7694823894E+00  0.0000000000E+00
                       2.1763116723E+00  3.7694823894E+00  6.1388977555E+00
                      -2.1763116723E+00  3.7694823894E+00  4.6175054814E+00
                       2.1763116723E+00  3.7694823894E+00  1.0756403237E+01
             xred1     3.3333333333E-01  6.6666666667E-01  0.0000000000E+00
                       6.6666666667E-01  3.3333333333E-01  5.0000000000E-01
                       3.3333333333E-01  6.6666666667E-01  3.7545386882E-01
                       6.6666666667E-01  3.3333333333E-01  8.7545386882E-01
             xred2     3.3333333333E-01  6.6666666667E-01  0.0000000000E+00
                       6.6666666667E-01  3.3333333333E-01  5.0000000000E-01
                       3.3333333333E-01  6.6666666667E-01  3.7608587611E-01
                       6.6666666667E-01  3.3333333333E-01  8.7608587611E-01
            znucl       13.00000   33.00000

================================================================================
  

================================================================================

 Suggested references for the acknowledgment of ABINIT usage.

 The users of ABINIT have little formal obligations with respect to the ABINIT group
 (those specified in the GNU General Public License, http://www.gnu.org/copyleft/gpl.txt).
 However, it is common practice in the scientific literature,
 to acknowledge the efforts of people that have made the research possible.
 In this spirit, please find below suggested citations of work written by ABINIT developers,
 corresponding to implementations inside of ABINIT that you have used in the present run.
 Note also that it will be of great value to readers of publications presenting these results,
 to read papers enabling them to understand the theoretical formalism and details
 of the ABINIT implementation.
 For information on why they are suggested, see also https://docs.abinit.org/theory/acknowledgments.
-
- [1] Recent developments in the ABINIT software package.
- Computer Phys. Comm. 205, 106 (2016).
- X.Gonze, F.Jollet, F.Abreu Araujo, D.Adams, B.Amadon, T.Applencourt,
- C.Audouze, J.-M.Beuken, J.Bieder, A.Bokhanchuk, E.Bousquet, F.Bruneval
- D.Caliste, M.Cote, F.Dahm, F.Da Pieve, M.Delaveau, M.Di Gennaro,
- B.Dorado, C.Espejo, G.Geneste, L.Genovese, A.Gerossier, M.Giantomassi,
- Y.Gillet, D.R.Hamann, L.He, G.Jomard, J.Laflamme Janssen, S.Le Roux,
- A.Levitt, A.Lherbier, F.Liu, I.Lukacevic, A.Martin, C.Martins,
- M.J.T.Oliveira, S.Ponce, Y.Pouillon, T.Rangel, G.-M.Rignanese,
- A.H.Romero, B.Rousseau, O.Rubel, A.A.Shukri, M.Stankovski, M.Torrent,
- M.J.Van Setten, B.Van Troeye, M.J.Verstraete, D.Waroquier, J.Wiktor,
- B.Xu, A.Zhou, J.W.Zwanziger.
- Comment : the fourth generic paper describing the ABINIT project.
- Note that a version of this paper, that is not formatted for Computer Phys. Comm. 
- is available at https://www.abinit.org/about/ABINIT16.pdf .
- The licence allows the authors to put it on the Web.
- DOI and bibtex : see https://docs.abinit.org/theory/bibliography/#gonze2016
-
- [2] ABINIT : First-principles approach of materials and nanosystem properties.
- Computer Phys. Comm. 180, 2582-2615 (2009).
- X. Gonze, B. Amadon, P.-M. Anglade, J.-M. Beuken, F. Bottin, P. Boulanger, F. Bruneval,
- D. Caliste, R. Caracas, M. Cote, T. Deutsch, L. Genovese, Ph. Ghosez, M. Giantomassi
- S. Goedecker, D.R. Hamann, P. Hermet, F. Jollet, G. Jomard, S. Leroux, M. Mancini, S. Mazevet,
- M.J.T. Oliveira, G. Onida, Y. Pouillon, T. Rangel, G.-M. Rignanese, D. Sangalli, R. Shaltaf,
- M. Torrent, M.J. Verstraete, G. Zerah, J.W. Zwanziger
- Comment : the third generic paper describing the ABINIT project.
- Note that a version of this paper, that is not formatted for Computer Phys. Comm. 
- is available at https://www.abinit.org/about/ABINIT_CPC_v10.pdf .
- The licence allows the authors to put it on the Web.
- DOI and bibtex : see https://docs.abinit.org/theory/bibliography/#gonze2009
-
- [3] A brief introduction to the ABINIT software package.
- Z. Kristallogr. 220, 558-562 (2005).
- X. Gonze, G.-M. Rignanese, M. Verstraete, J.-M. Beuken, Y. Pouillon, R. Caracas, F. Jollet,
- M. Torrent, G. Zerah, M. Mikami, Ph. Ghosez, M. Veithen, J.-Y. Raty, V. Olevano, F. Bruneval,
- L. Reining, R. Godby, G. Onida, D.R. Hamann, and D.C. Allan.
- Comment : the second generic paper describing the ABINIT project. Note that this paper
- should be cited especially if you are using the GW part of ABINIT, as several authors
- of this part are not in the list of authors of the first or third paper.
- The .pdf of the latter paper is available at https://www.abinit.org/about/zfk_0505-06_558-562.pdf.
- Note that it should not redistributed (Copyright by Oldenburg Wissenshaftverlag,
- the licence allows the authors to put it on the Web).
- DOI and bibtex : see https://docs.abinit.org/theory/bibliography/#gonze2005
-
- And optionally:
-
- [4] First-principles computation of material properties : the ABINIT software project. 
- X. Gonze, J.-M. Beuken, R. Caracas, F. Detraux, M. Fuchs, G.-M. Rignanese, L. Sindic,
- M. Verstraete, G. Zerah, F. Jollet, M. Torrent, A. Roy, M. Mikami, Ph. Ghosez, J.-Y. Raty, D.C. Allan.
- Computational Materials Science 25, 478-492 (2002). http://dx.doi.org/10.1016/S0927-0256(02)00325-7
- Comment : the original paper describing the ABINIT project.
- DOI and bibtex : see https://docs.abinit.org/theory/bibliography/#gonze2002
  Asked to delete not existent file: telast_1_STATUS
 Proc.   0 individual time (sec): cpu=         21.7  wall=         22.5

 Calculation completed.
.Delivered   0 WARNINGs and   0 COMMENTs to log file.

--- !FinalSummary
program: abinit
version: 8.10.3
start_datetime: Mon Nov 04 12:12:10 2019
end_datetime: Mon Nov 04 12:12:33 2019
overall_cpu_time:          87.5
overall_wall_time:          90.2
exit_requested_by_user: no 
timelimit: 0
pseudos: 
    Al  : a932766b26e386f2164c640715a809d6
    As  : 56f075499613b4e8e69cc77bd15edc6d
usepaw: 0
mpi_procs: 4
omp_threads: 1
num_warnings: 0
num_comments: 0
...
