
.Version 8.10.3 of ABINIT 
.(MPI version, prepared for a x86_64_linux_gnu5.4 computer) 

.Copyright (C) 1998-2018 ABINIT group . 
 ABINIT comes with ABSOLUTELY NO WARRANTY.
 It is free software, and you are welcome to redistribute it
 under certain conditions (GNU General Public License,
 see ~abinit/COPYING or http://www.gnu.org/copyleft/gpl.txt).

 ABINIT is a project of the Universite Catholique de Louvain,
 Corning Inc. and other collaborators, see ~abinit/doc/developers/contributors.txt .
 Please read https://docs.abinit.org/theory/acknowledgments for suggested
 acknowledgments of the ABINIT effort.
 For more information, see https://www.abinit.org .

.Starting date : Fri 18 Oct 2019.
- ( at 14h02 )
  
- input  file    -> tbase4_3.in
- output file    -> tbase4_3.out
- root for input  files -> tbase4_3i
- root for output files -> tbase4_3o


 DATASET   11 : space group Fm -3 m (#225); Bravais cF (face-center cubic)
================================================================================
 Values of the parameters that define the memory need for DATASET 11.
     intxc =       0    ionmov =       2      iscf =       7    lmnmax =       3
     lnmax =       3     mgfft =      15  mpssoang =       3    mqgrid =    3001
     natom =       1  nloc_mem =       1    nspden =       1   nspinor =       1
    nsppol =       1      nsym =      48    n1xccc =       0    ntypat =       1
    occopt =       4   xclevel =       1
-    mband =           3        mffmem =           1         mkmem =           5
       mpw =          92          nfft =        3375          nkpt =          10
================================================================================
P This job should need less than                       2.149 Mbytes of memory.
  Rough estimation (10% accuracy) of disk space for files :
_ WF disk file :      0.044 Mbytes ; DEN or POT disk file :      0.028 Mbytes.
================================================================================


 DATASET   12 : space group Fm -3 m (#225); Bravais cF (face-center cubic)
================================================================================
 Values of the parameters that define the memory need for DATASET 12.
     intxc =       0    ionmov =       2      iscf =       7    lmnmax =       3
     lnmax =       3     mgfft =      15  mpssoang =       3    mqgrid =    3001
     natom =       1  nloc_mem =       1    nspden =       1   nspinor =       1
    nsppol =       1      nsym =      48    n1xccc =       0    ntypat =       1
    occopt =       4   xclevel =       1
-    mband =           3        mffmem =           1         mkmem =           5
       mpw =          92          nfft =        3375          nkpt =          10
================================================================================
P This job should need less than                       2.149 Mbytes of memory.
  Rough estimation (10% accuracy) of disk space for files :
_ WF disk file :      0.044 Mbytes ; DEN or POT disk file :      0.028 Mbytes.
================================================================================


 DATASET   13 : space group Fm -3 m (#225); Bravais cF (face-center cubic)
================================================================================
 Values of the parameters that define the memory need for DATASET 13.
     intxc =       0    ionmov =       2      iscf =       7    lmnmax =       3
     lnmax =       3     mgfft =      15  mpssoang =       3    mqgrid =    3001
     natom =       1  nloc_mem =       1    nspden =       1   nspinor =       1
    nsppol =       1      nsym =      48    n1xccc =       0    ntypat =       1
    occopt =       4   xclevel =       1
-    mband =           3        mffmem =           1         mkmem =           5
       mpw =          92          nfft =        3375          nkpt =          10
================================================================================
P This job should need less than                       2.149 Mbytes of memory.
  Rough estimation (10% accuracy) of disk space for files :
_ WF disk file :      0.044 Mbytes ; DEN or POT disk file :      0.028 Mbytes.
================================================================================


 DATASET   14 : space group Fm -3 m (#225); Bravais cF (face-center cubic)
================================================================================
 Values of the parameters that define the memory need for DATASET 14.
     intxc =       0    ionmov =       2      iscf =       7    lmnmax =       3
     lnmax =       3     mgfft =      15  mpssoang =       3    mqgrid =    3001
     natom =       1  nloc_mem =       1    nspden =       1   nspinor =       1
    nsppol =       1      nsym =      48    n1xccc =       0    ntypat =       1
    occopt =       4   xclevel =       1
-    mband =           3        mffmem =           1         mkmem =           5
       mpw =          92          nfft =        3375          nkpt =          10
================================================================================
P This job should need less than                       2.149 Mbytes of memory.
  Rough estimation (10% accuracy) of disk space for files :
_ WF disk file :      0.044 Mbytes ; DEN or POT disk file :      0.028 Mbytes.
================================================================================


 DATASET   21 : space group Fm -3 m (#225); Bravais cF (face-center cubic)
================================================================================
 Values of the parameters that define the memory need for DATASET 21.
     intxc =       0    ionmov =       2      iscf =       7    lmnmax =       3
     lnmax =       3     mgfft =      15  mpssoang =       3    mqgrid =    3001
     natom =       1  nloc_mem =       1    nspden =       1   nspinor =       1
    nsppol =       1      nsym =      48    n1xccc =       0    ntypat =       1
    occopt =       4   xclevel =       1
-    mband =           3        mffmem =           1         mkmem =           5
       mpw =          92          nfft =        3375          nkpt =          10
================================================================================
P This job should need less than                       2.149 Mbytes of memory.
  Rough estimation (10% accuracy) of disk space for files :
_ WF disk file :      0.044 Mbytes ; DEN or POT disk file :      0.028 Mbytes.
================================================================================


 DATASET   22 : space group Fm -3 m (#225); Bravais cF (face-center cubic)
================================================================================
 Values of the parameters that define the memory need for DATASET 22.
     intxc =       0    ionmov =       2      iscf =       7    lmnmax =       3
     lnmax =       3     mgfft =      15  mpssoang =       3    mqgrid =    3001
     natom =       1  nloc_mem =       1    nspden =       1   nspinor =       1
    nsppol =       1      nsym =      48    n1xccc =       0    ntypat =       1
    occopt =       4   xclevel =       1
-    mband =           3        mffmem =           1         mkmem =           5
       mpw =          92          nfft =        3375          nkpt =          10
================================================================================
P This job should need less than                       2.149 Mbytes of memory.
  Rough estimation (10% accuracy) of disk space for files :
_ WF disk file :      0.044 Mbytes ; DEN or POT disk file :      0.028 Mbytes.
================================================================================


 DATASET   23 : space group Fm -3 m (#225); Bravais cF (face-center cubic)
================================================================================
 Values of the parameters that define the memory need for DATASET 23.
     intxc =       0    ionmov =       2      iscf =       7    lmnmax =       3
     lnmax =       3     mgfft =      15  mpssoang =       3    mqgrid =    3001
     natom =       1  nloc_mem =       1    nspden =       1   nspinor =       1
    nsppol =       1      nsym =      48    n1xccc =       0    ntypat =       1
    occopt =       4   xclevel =       1
-    mband =           3        mffmem =           1         mkmem =           5
       mpw =          92          nfft =        3375          nkpt =          10
================================================================================
P This job should need less than                       2.149 Mbytes of memory.
  Rough estimation (10% accuracy) of disk space for files :
_ WF disk file :      0.044 Mbytes ; DEN or POT disk file :      0.028 Mbytes.
================================================================================


 DATASET   24 : space group Fm -3 m (#225); Bravais cF (face-center cubic)
================================================================================
 Values of the parameters that define the memory need for DATASET 24.
     intxc =       0    ionmov =       2      iscf =       7    lmnmax =       3
     lnmax =       3     mgfft =      15  mpssoang =       3    mqgrid =    3001
     natom =       1  nloc_mem =       1    nspden =       1   nspinor =       1
    nsppol =       1      nsym =      48    n1xccc =       0    ntypat =       1
    occopt =       4   xclevel =       1
-    mband =           3        mffmem =           1         mkmem =           5
       mpw =          92          nfft =        3375          nkpt =          10
================================================================================
P This job should need less than                       2.149 Mbytes of memory.
  Rough estimation (10% accuracy) of disk space for files :
_ WF disk file :      0.044 Mbytes ; DEN or POT disk file :      0.028 Mbytes.
================================================================================


 DATASET   31 : space group Fm -3 m (#225); Bravais cF (face-center cubic)
================================================================================
 Values of the parameters that define the memory need for DATASET 31.
     intxc =       0    ionmov =       2      iscf =       7    lmnmax =       3
     lnmax =       3     mgfft =      15  mpssoang =       3    mqgrid =    3001
     natom =       1  nloc_mem =       1    nspden =       1   nspinor =       1
    nsppol =       1      nsym =      48    n1xccc =       0    ntypat =       1
    occopt =       4   xclevel =       1
-    mband =           3        mffmem =           1         mkmem =           5
       mpw =          92          nfft =        3375          nkpt =          10
================================================================================
P This job should need less than                       2.149 Mbytes of memory.
  Rough estimation (10% accuracy) of disk space for files :
_ WF disk file :      0.044 Mbytes ; DEN or POT disk file :      0.028 Mbytes.
================================================================================


 DATASET   32 : space group Fm -3 m (#225); Bravais cF (face-center cubic)
================================================================================
 Values of the parameters that define the memory need for DATASET 32.
     intxc =       0    ionmov =       2      iscf =       7    lmnmax =       3
     lnmax =       3     mgfft =      15  mpssoang =       3    mqgrid =    3001
     natom =       1  nloc_mem =       1    nspden =       1   nspinor =       1
    nsppol =       1      nsym =      48    n1xccc =       0    ntypat =       1
    occopt =       4   xclevel =       1
-    mband =           3        mffmem =           1         mkmem =           5
       mpw =          92          nfft =        3375          nkpt =          10
================================================================================
P This job should need less than                       2.149 Mbytes of memory.
  Rough estimation (10% accuracy) of disk space for files :
_ WF disk file :      0.044 Mbytes ; DEN or POT disk file :      0.028 Mbytes.
================================================================================


 DATASET   33 : space group Fm -3 m (#225); Bravais cF (face-center cubic)
================================================================================
 Values of the parameters that define the memory need for DATASET 33.
     intxc =       0    ionmov =       2      iscf =       7    lmnmax =       3
     lnmax =       3     mgfft =      15  mpssoang =       3    mqgrid =    3001
     natom =       1  nloc_mem =       1    nspden =       1   nspinor =       1
    nsppol =       1      nsym =      48    n1xccc =       0    ntypat =       1
    occopt =       4   xclevel =       1
-    mband =           3        mffmem =           1         mkmem =           5
       mpw =          92          nfft =        3375          nkpt =          10
================================================================================
P This job should need less than                       2.149 Mbytes of memory.
  Rough estimation (10% accuracy) of disk space for files :
_ WF disk file :      0.044 Mbytes ; DEN or POT disk file :      0.028 Mbytes.
================================================================================


 DATASET   34 : space group Fm -3 m (#225); Bravais cF (face-center cubic)
================================================================================
 Values of the parameters that define the memory need for DATASET 34.
     intxc =       0    ionmov =       2      iscf =       7    lmnmax =       3
     lnmax =       3     mgfft =      15  mpssoang =       3    mqgrid =    3001
     natom =       1  nloc_mem =       1    nspden =       1   nspinor =       1
    nsppol =       1      nsym =      48    n1xccc =       0    ntypat =       1
    occopt =       4   xclevel =       1
-    mband =           3        mffmem =           1         mkmem =           5
       mpw =          92          nfft =        3375          nkpt =          10
================================================================================
P This job should need less than                       2.149 Mbytes of memory.
  Rough estimation (10% accuracy) of disk space for files :
_ WF disk file :      0.044 Mbytes ; DEN or POT disk file :      0.028 Mbytes.
================================================================================

--------------------------------------------------------------------------------
------------- Echo of variables that govern the present computation ------------
--------------------------------------------------------------------------------
-
- outvars: echo of selected default values                                      
-   iomode0 =  0 , fftalg0 =312 , wfoptalg0 =  0
-
- outvars: echo of global parameters not present in the input file              
-  max_nthreads =    2
-
 -outvars: echo values of preprocessed input variables --------
            acell      7.6000000000E+00  7.6000000000E+00  7.6000000000E+00 Bohr
              amu      2.69815390E+01
          dilatmx      1.05000000E+00
             ecut      6.00000000E+00 Hartree
           ecutsm      5.00000000E-01 Hartree
-          fftalg         312
           getwfk          -1
           ionmov           2
           jdtset       11   12   13   14   21   22   23   24   31   32
                        33   34
              kpt     -1.25000000E-01  0.00000000E+00  0.00000000E+00
                      -1.25000000E-01  0.00000000E+00  2.50000000E-01
                      -1.25000000E-01  1.25000000E-01  1.25000000E-01
                      -3.75000000E-01  0.00000000E+00  0.00000000E+00
                      -1.25000000E-01  0.00000000E+00  5.00000000E-01
                      -2.50000000E-01  0.00000000E+00  3.75000000E-01
                      -1.25000000E-01  1.25000000E-01  3.75000000E-01
                      -1.25000000E-01  2.50000000E-01  2.50000000E-01
                      -3.75000000E-01  0.00000000E+00  5.00000000E-01
                      -2.50000000E-01  1.25000000E-01  5.00000000E-01
         kptrlatt        4    4   -4     -4    4   -4     -4    4    4
          kptrlen      3.04000000E+01
P           mkmem           5
            natom           1
            nband           3
           ndtset          12
            ngfft          15      15      15
             nkpt          10
            nstep          10
             nsym          48
            ntime          10
           ntypat           1
              occ      2.000000  1.000000  0.000000
                       2.000000  1.000000  0.000000
                       2.000000  1.000000  0.000000
                       2.000000  1.000000  0.000000
                       2.000000  1.000000  0.000000
                       2.000000  1.000000  0.000000
                       2.000000  1.000000  0.000000
                       2.000000  1.000000  0.000000
                       2.000000  1.000000  0.000000
                       2.000000  1.000000  0.000000
           occopt           4
          optcell           1
            rprim      0.0000000000E+00  5.0000000000E-01  5.0000000000E-01
                       5.0000000000E-01  0.0000000000E+00  5.0000000000E-01
                       5.0000000000E-01  5.0000000000E-01  0.0000000000E+00
           shiftk      5.00000000E-01  5.00000000E-01  5.00000000E-01
          spgroup         225
           symrel      1  0  0   0  1  0   0  0  1      -1  0  0   0 -1  0   0  0 -1
                       0 -1  1   0 -1  0   1 -1  0       0  1 -1   0  1  0  -1  1  0
                      -1  0  0  -1  0  1  -1  1  0       1  0  0   1  0 -1   1 -1  0
                       0  1 -1   1  0 -1   0  0 -1       0 -1  1  -1  0  1   0  0  1
                      -1  0  0  -1  1  0  -1  0  1       1  0  0   1 -1  0   1  0 -1
                       0 -1  1   1 -1  0   0 -1  0       0  1 -1  -1  1  0   0  1  0
                       1  0  0   0  0  1   0  1  0      -1  0  0   0  0 -1   0 -1  0
                       0  1 -1   0  0 -1   1  0 -1       0 -1  1   0  0  1  -1  0  1
                      -1  0  1  -1  1  0  -1  0  0       1  0 -1   1 -1  0   1  0  0
                       0 -1  0   1 -1  0   0 -1  1       0  1  0  -1  1  0   0  1 -1
                       1  0 -1   0  0 -1   0  1 -1      -1  0  1   0  0  1   0 -1  1
                       0  1  0   0  0  1   1  0  0       0 -1  0   0  0 -1  -1  0  0
                       1  0 -1   0  1 -1   0  0 -1      -1  0  1   0 -1  1   0  0  1
                       0 -1  0   0 -1  1   1 -1  0       0  1  0   0  1 -1  -1  1  0
                      -1  0  1  -1  0  0  -1  1  0       1  0 -1   1  0  0   1 -1  0
                       0  1  0   1  0  0   0  0  1       0 -1  0  -1  0  0   0  0 -1
                       0  0 -1   0  1 -1   1  0 -1       0  0  1   0 -1  1  -1  0  1
                       1 -1  0   0 -1  1   0 -1  0      -1  1  0   0  1 -1   0  1  0
                       0  0  1   1  0  0   0  1  0       0  0 -1  -1  0  0   0 -1  0
                      -1  1  0  -1  0  0  -1  0  1       1 -1  0   1  0  0   1  0 -1
                       0  0  1   0  1  0   1  0  0       0  0 -1   0 -1  0  -1  0  0
                       1 -1  0   0 -1  0   0 -1  1      -1  1  0   0  1  0   0  1 -1
                       0  0 -1   1  0 -1   0  1 -1       0  0  1  -1  0  1   0 -1  1
                      -1  1  0  -1  0  1  -1  0  0       1 -1  0   1  0 -1   1  0  0
           toldfe      1.00000000E-06 Hartree
           tsmear11    1.00000000E-02 Hartree
           tsmear12    2.00000000E-02 Hartree
           tsmear13    3.00000000E-02 Hartree
           tsmear14    4.00000000E-02 Hartree
           tsmear21    1.00000000E-02 Hartree
           tsmear22    2.00000000E-02 Hartree
           tsmear23    3.00000000E-02 Hartree
           tsmear24    4.00000000E-02 Hartree
           tsmear31    1.00000000E-02 Hartree
           tsmear32    2.00000000E-02 Hartree
           tsmear33    3.00000000E-02 Hartree
           tsmear34    4.00000000E-02 Hartree
            typat      1
              wtk        0.03125    0.09375    0.09375    0.03125    0.09375    0.09375
                         0.18750    0.09375    0.09375    0.18750
            znucl       13.00000

================================================================================

 chkinp: Checking input parameters for consistency, jdtset=  11.

 chkinp: Checking input parameters for consistency, jdtset=  12.

 chkinp: Checking input parameters for consistency, jdtset=  13.

 chkinp: Checking input parameters for consistency, jdtset=  14.

 chkinp: Checking input parameters for consistency, jdtset=  21.

 chkinp: Checking input parameters for consistency, jdtset=  22.

 chkinp: Checking input parameters for consistency, jdtset=  23.

 chkinp: Checking input parameters for consistency, jdtset=  24.

 chkinp: Checking input parameters for consistency, jdtset=  31.

 chkinp: Checking input parameters for consistency, jdtset=  32.

 chkinp: Checking input parameters for consistency, jdtset=  33.

 chkinp: Checking input parameters for consistency, jdtset=  34.

================================================================================
== DATASET 11 ==================================================================
-   nproc =    2

 Exchange-correlation functional for the present dataset will be:
  LDA: new Teter (4/93) with spin-polarized option - ixc=1
 Citation for XC functional:
  S. Goedecker, M. Teter, J. Huetter, PRB 54, 1703 (1996)

 Real(R)+Recip(G) space primitive vectors, cartesian coordinates (Bohr,Bohr^-1):
 R(1)=  0.0000000  3.8000000  3.8000000  G(1)= -0.1315789  0.1315789  0.1315789
 R(2)=  3.8000000  0.0000000  3.8000000  G(2)=  0.1315789 -0.1315789  0.1315789
 R(3)=  3.8000000  3.8000000  0.0000000  G(3)=  0.1315789  0.1315789 -0.1315789
 Unit cell volume ucvol=  1.0974400E+02 bohr^3
 Angles (23,13,12)=  6.00000000E+01  6.00000000E+01  6.00000000E+01 degrees

 getcut: wavevector=  0.0000  0.0000  0.0000  ngfft=  15  15  15
         ecut(hartree)=      6.615   => boxcut(ratio)=   2.26154

 getcut : COMMENT -
  Note that boxcut > 2.2 ; recall that boxcut=Gcut(box)/Gcut(sphere) = 2
  is sufficient for exact treatment of convolution.
  Such a large boxcut is a waste : you could raise ecut
  e.g. ecut=    8.458196 Hartrees makes boxcut=2


--- Pseudopotential description ------------------------------------------------
- pspini: atom type   1  psp file is ../../../../../Psps_for_tests/13al.981214.fhi
- pspatm: opening atomic psp file    ../../../../../Psps_for_tests/13al.981214.fhi
- Aluminum, fhi98PP : Hamann-type, LDA CA PerdewWang, l=2 local
- 13.00000   3.00000    981214                znucl, zion, pspdat
    6    7    2    2       493   0.00000      pspcod,pspxc,lmax,lloc,mmax,r2well
  No XC core correction.
  1.024700          amesh (Hamman grid)
  pspatm : epsatm=    1.36305739
         --- l  ekb(1:nproj) -->
             0    1.768744
             1    0.900554
 pspatm: atomic psp has been read  and splines computed

   4.08917216E+00                                ecore*ucvol(ha*bohr**3)
--------------------------------------------------------------------------------

_setup2: Arith. and geom. avg. npw (full set) are      89.000      88.972

================================================================================

=== [ionmov= 2] Broyden-Fletcher-Goldfard-Shanno method (forces)            
================================================================================

--- Iteration: ( 1/10) Internal Cycle: (1/1)
--------------------------------------------------------------------------------

---SELF-CONSISTENT-FIELD CONVERGENCE--------------------------------------------

     iter   Etot(hartree)      deltaE(h)  residm     vres2
 ETOT  1  -2.0964410508074    -2.096E+00 3.071E-03 3.775E-01
 ETOT  2  -2.0967526048435    -3.116E-04 1.404E-06 1.028E-02
 ETOT  3  -2.0967585683178    -5.963E-06 1.374E-07 5.692E-05
 ETOT  4  -2.0967585992551    -3.094E-08 4.364E-09 2.266E-07
 ETOT  5  -2.0967585993521    -9.702E-11 8.283E-12 5.142E-10

 At SCF step    5, etot is converged : 
  for the second time, diff in etot=  9.702E-11 < toldfe=  1.000E-06

 Cartesian components of stress tensor (hartree/bohr^3)
  sigma(1 1)=  1.00130342E-04  sigma(3 2)=  0.00000000E+00
  sigma(2 2)=  1.00130342E-04  sigma(3 1)=  0.00000000E+00
  sigma(3 3)=  1.00130342E-04  sigma(2 1)=  0.00000000E+00

 Integrated electronic density in atomic spheres:
 ------------------------------------------------
 Atom  Sphere_radius  Integrated_density
    1        2.00000          0.93018112

---OUTPUT-----------------------------------------------------------------------

 Cartesian coordinates (xcart) [bohr]
  0.00000000000000E+00  0.00000000000000E+00  0.00000000000000E+00
 Reduced coordinates (xred)
  0.00000000000000E+00  0.00000000000000E+00  0.00000000000000E+00
 Cartesian forces (fcart) [Ha/bohr]; max,rms= 0.00000E+00 0.00000E+00 (free atoms)
 -0.00000000000000E+00 -0.00000000000000E+00 -0.00000000000000E+00
 Reduced forces (fred)
  0.00000000000000E+00  0.00000000000000E+00  0.00000000000000E+00
 Scale of Primitive Cell (acell) [bohr]
  7.60000000000000E+00  7.60000000000000E+00  7.60000000000000E+00
 Real space primitive translations (rprimd) [bohr]
  0.00000000000000E+00  3.80000000000000E+00  3.80000000000000E+00
  3.80000000000000E+00  0.00000000000000E+00  3.80000000000000E+00
  3.80000000000000E+00  3.80000000000000E+00  0.00000000000000E+00
 Unitary Cell Volume (ucvol) [Bohr^3]=  1.09744000000000E+02
 Angles (23,13,12)= [degrees]
  6.00000000000000E+01  6.00000000000000E+01  6.00000000000000E+01
 Lengths [Bohr]
  5.37401153701776E+00  5.37401153701776E+00  5.37401153701776E+00
 Stress tensor in cartesian coordinates (strten) [Ha/bohr^3]
  1.00130341654863E-04  0.00000000000000E+00  0.00000000000000E+00
  0.00000000000000E+00  1.00130341654864E-04  0.00000000000000E+00
  0.00000000000000E+00  0.00000000000000E+00  1.00130341654863E-04
 Total energy (etotal) [Ha]= -2.09675859935212E+00

--- Iteration: ( 2/10) Internal Cycle: (1/1)
--------------------------------------------------------------------------------

---SELF-CONSISTENT-FIELD CONVERGENCE--------------------------------------------

     iter   Etot(hartree)      deltaE(h)  residm     vres2
 ETOT  1  -2.0968466653747    -2.097E+00 4.869E-08 7.910E-05
 ETOT  2  -2.0968467011526    -3.578E-08 1.186E-13 4.823E-06
 ETOT  3  -2.0968467035903    -2.438E-09 5.055E-11 4.281E-09

 At SCF step    3, etot is converged : 
  for the second time, diff in etot=  2.438E-09 < toldfe=  1.000E-06

 Cartesian components of stress tensor (hartree/bohr^3)
  sigma(1 1)=  7.84489933E-05  sigma(3 2)=  0.00000000E+00
  sigma(2 2)=  7.84489933E-05  sigma(3 1)=  0.00000000E+00
  sigma(3 3)=  7.84489933E-05  sigma(2 1)=  0.00000000E+00

 Integrated electronic density in atomic spheres:
 ------------------------------------------------
 Atom  Sphere_radius  Integrated_density
    1        2.00000          0.92554600

---OUTPUT-----------------------------------------------------------------------

 Cartesian coordinates (xcart) [bohr]
  0.00000000000000E+00  0.00000000000000E+00  0.00000000000000E+00
 Reduced coordinates (xred)
  0.00000000000000E+00  0.00000000000000E+00  0.00000000000000E+00
 Cartesian forces (fcart) [Ha/bohr]; max,rms= 0.00000E+00 0.00000E+00 (free atoms)
 -0.00000000000000E+00 -0.00000000000000E+00 -0.00000000000000E+00
 Reduced forces (fred)
  0.00000000000000E+00  0.00000000000000E+00  0.00000000000000E+00
 Scale of Primitive Cell (acell) [bohr]
  7.57717028210269E+00  7.57717028210269E+00  7.57717028210269E+00
 Real space primitive translations (rprimd) [bohr]
  0.00000000000000E+00  3.78858514105135E+00  3.78858514105135E+00
  3.78858514105135E+00  0.00000000000000E+00  3.78858514105135E+00
  3.78858514105135E+00  3.78858514105135E+00  0.00000000000000E+00
 Unitary Cell Volume (ucvol) [Bohr^3]=  1.08757984463309E+02
 Angles (23,13,12)= [degrees]
  6.00000000000000E+01  6.00000000000000E+01  6.00000000000000E+01
 Lengths [Bohr]
  5.35786848868000E+00  5.35786848868000E+00  5.35786848868000E+00
 Stress tensor in cartesian coordinates (strten) [Ha/bohr^3]
  7.84489932961853E-05  0.00000000000000E+00  0.00000000000000E+00
  0.00000000000000E+00  7.84489932961854E-05  0.00000000000000E+00
  0.00000000000000E+00  0.00000000000000E+00  7.84489932961855E-05
 Total energy (etotal) [Ha]= -2.09684670359034E+00

 Difference of energy with previous step (new-old):
           Absolute (Ha)=-8.81042E-05
           Relative     =-4.20184E-05

--- Iteration: ( 3/10) Internal Cycle: (1/1)
--------------------------------------------------------------------------------

---SELF-CONSISTENT-FIELD CONVERGENCE--------------------------------------------

     iter   Etot(hartree)      deltaE(h)  residm     vres2
 ETOT  1  -2.0969694260881    -2.097E+00 1.216E-05 9.540E-04
 ETOT  2  -2.0969698387134    -4.126E-07 7.791E-13 5.722E-05
 ETOT  3  -2.0969698662124    -2.750E-08 5.516E-10 5.194E-08

 At SCF step    3, etot is converged : 
  for the second time, diff in etot=  2.750E-08 < toldfe=  1.000E-06

 Cartesian components of stress tensor (hartree/bohr^3)
  sigma(1 1)= -9.27503300E-06  sigma(3 2)=  0.00000000E+00
  sigma(2 2)= -9.27503300E-06  sigma(3 1)=  0.00000000E+00
  sigma(3 3)= -9.27503300E-06  sigma(2 1)=  0.00000000E+00

 Integrated electronic density in atomic spheres:
 ------------------------------------------------
 Atom  Sphere_radius  Integrated_density
    1        2.00000          0.91524804

---OUTPUT-----------------------------------------------------------------------

 Cartesian coordinates (xcart) [bohr]
  0.00000000000000E+00  0.00000000000000E+00  0.00000000000000E+00
 Reduced coordinates (xred)
  0.00000000000000E+00  0.00000000000000E+00  0.00000000000000E+00
 Cartesian forces (fcart) [Ha/bohr]; max,rms= 0.00000E+00 0.00000E+00 (free atoms)
 -0.00000000000000E+00 -0.00000000000000E+00 -0.00000000000000E+00
 Reduced forces (fred)
  0.00000000000000E+00  0.00000000000000E+00  0.00000000000000E+00
 Scale of Primitive Cell (acell) [bohr]
  7.49788581027582E+00  7.49788581027582E+00  7.49788581027582E+00
 Real space primitive translations (rprimd) [bohr]
  0.00000000000000E+00  3.74894290513791E+00  3.74894290513791E+00
  3.74894290513791E+00  0.00000000000000E+00  3.74894290513791E+00
  3.74894290513791E+00  3.74894290513791E+00  0.00000000000000E+00
 Unitary Cell Volume (ucvol) [Bohr^3]=  1.05379582761264E+02
 Angles (23,13,12)= [degrees]
  6.00000000000000E+01  6.00000000000000E+01  6.00000000000000E+01
 Lengths [Bohr]
  5.30180590100843E+00  5.30180590100843E+00  5.30180590100843E+00
 Stress tensor in cartesian coordinates (strten) [Ha/bohr^3]
 -9.27503299668470E-06  0.00000000000000E+00  0.00000000000000E+00
  0.00000000000000E+00 -9.27503299668459E-06  0.00000000000000E+00
  0.00000000000000E+00  0.00000000000000E+00 -9.27503299668470E-06
 Total energy (etotal) [Ha]= -2.09696986621244E+00

 Difference of energy with previous step (new-old):
           Absolute (Ha)=-1.23163E-04
           Relative     =-5.87353E-05

--- Iteration: ( 4/10) Internal Cycle: (1/1)
--------------------------------------------------------------------------------

---SELF-CONSISTENT-FIELD CONVERGENCE--------------------------------------------

     iter   Etot(hartree)      deltaE(h)  residm     vres2
 ETOT  1  -2.0969713425591    -2.097E+00 1.045E-10 1.157E-05
 ETOT  2  -2.0969713476132    -5.054E-09 1.027E-14 7.002E-07
 ETOT  3  -2.0969713479518    -3.386E-10 6.878E-12 5.809E-10

 At SCF step    3, etot is converged : 
  for the second time, diff in etot=  3.386E-10 < toldfe=  1.000E-06

 Cartesian components of stress tensor (hartree/bohr^3)
  sigma(1 1)=  6.67072413E-07  sigma(3 2)=  0.00000000E+00
  sigma(2 2)=  6.67072413E-07  sigma(3 1)=  0.00000000E+00
  sigma(3 3)=  6.67072413E-07  sigma(2 1)=  0.00000000E+00

 Integrated electronic density in atomic spheres:
 ------------------------------------------------
 Atom  Sphere_radius  Integrated_density
    1        2.00000          0.91134069

---OUTPUT-----------------------------------------------------------------------

 Cartesian coordinates (xcart) [bohr]
  0.00000000000000E+00  0.00000000000000E+00  0.00000000000000E+00
 Reduced coordinates (xred)
  0.00000000000000E+00  0.00000000000000E+00  0.00000000000000E+00
 Cartesian forces (fcart) [Ha/bohr]; max,rms= 0.00000E+00 0.00000E+00 (free atoms)
 -0.00000000000000E+00 -0.00000000000000E+00 -0.00000000000000E+00
 Reduced forces (fred)
  0.00000000000000E+00  0.00000000000000E+00  0.00000000000000E+00
 Scale of Primitive Cell (acell) [bohr]
  7.50603489969334E+00  7.50603489969334E+00  7.50603489969334E+00
 Real space primitive translations (rprimd) [bohr]
  0.00000000000000E+00  3.75301744984667E+00  3.75301744984667E+00
  3.75301744984667E+00  0.00000000000000E+00  3.75301744984667E+00
  3.75301744984667E+00  3.75301744984667E+00  0.00000000000000E+00
 Unitary Cell Volume (ucvol) [Bohr^3]=  1.05723552248341E+02
 Angles (23,13,12)= [degrees]
  6.00000000000000E+01  6.00000000000000E+01  6.00000000000000E+01
 Lengths [Bohr]
  5.30756817739605E+00  5.30756817739605E+00  5.30756817739605E+00
 Stress tensor in cartesian coordinates (strten) [Ha/bohr^3]
  6.67072412500623E-07  0.00000000000000E+00  0.00000000000000E+00
  0.00000000000000E+00  6.67072412500677E-07  0.00000000000000E+00
  0.00000000000000E+00  0.00000000000000E+00  6.67072412500352E-07
 Total energy (etotal) [Ha]= -2.09697134795180E+00

 Difference of energy with previous step (new-old):
           Absolute (Ha)=-1.48174E-06
           Relative     =-7.06610E-07

--- Iteration: ( 5/10) Internal Cycle: (1/1)
--------------------------------------------------------------------------------

---SELF-CONSISTENT-FIELD CONVERGENCE--------------------------------------------

     iter   Etot(hartree)      deltaE(h)  residm     vres2
 ETOT  1  -2.0969713557162    -2.097E+00 5.081E-13 5.185E-08
 ETOT  2  -2.0969713557388    -2.261E-11 4.594E-17 3.136E-09
 ETOT  3  -2.0969713557403    -1.502E-12 3.076E-14 2.611E-12

 At SCF step    3, etot is converged : 
  for the second time, diff in etot=  1.502E-12 < toldfe=  1.000E-06

 Cartesian components of stress tensor (hartree/bohr^3)
  sigma(1 1)=  2.12914011E-09  sigma(3 2)=  0.00000000E+00
  sigma(2 2)=  2.12914011E-09  sigma(3 1)=  0.00000000E+00
  sigma(3 3)=  2.12914011E-09  sigma(2 1)=  0.00000000E+00

 Integrated electronic density in atomic spheres:
 ------------------------------------------------
 Atom  Sphere_radius  Integrated_density
    1        2.00000          0.91123190

---OUTPUT-----------------------------------------------------------------------

 Cartesian coordinates (xcart) [bohr]
  0.00000000000000E+00  0.00000000000000E+00  0.00000000000000E+00
 Reduced coordinates (xred)
  0.00000000000000E+00  0.00000000000000E+00  0.00000000000000E+00
 Cartesian forces (fcart) [Ha/bohr]; max,rms= 0.00000E+00 0.00000E+00 (free atoms)
 -0.00000000000000E+00 -0.00000000000000E+00 -0.00000000000000E+00
 Reduced forces (fred)
  0.00000000000000E+00  0.00000000000000E+00  0.00000000000000E+00
 Scale of Primitive Cell (acell) [bohr]
  7.50548646632705E+00  7.50548646632705E+00  7.50548646632705E+00
 Real space primitive translations (rprimd) [bohr]
  0.00000000000000E+00  3.75274323316353E+00  3.75274323316353E+00
  3.75274323316353E+00  0.00000000000000E+00  3.75274323316353E+00
  3.75274323316353E+00  3.75274323316353E+00  0.00000000000000E+00
 Unitary Cell Volume (ucvol) [Bohr^3]=  1.05700379659344E+02
 Angles (23,13,12)= [degrees]
  6.00000000000000E+01  6.00000000000000E+01  6.00000000000000E+01
 Lengths [Bohr]
  5.30718037644372E+00  5.30718037644372E+00  5.30718037644372E+00
 Stress tensor in cartesian coordinates (strten) [Ha/bohr^3]
  2.12914010695123E-09  0.00000000000000E+00  0.00000000000000E+00
  0.00000000000000E+00  2.12914010700544E-09  0.00000000000000E+00
  0.00000000000000E+00  0.00000000000000E+00  2.12914010689702E-09
 Total energy (etotal) [Ha]= -2.09697135574031E+00

 Difference of energy with previous step (new-old):
           Absolute (Ha)=-7.78851E-09
           Relative     =-3.71417E-09

 At Broyd/MD step   5, gradients are converged : 
  max grad (force/stress) = 2.1291E-07 < tolmxf= 5.0000E-05 ha/bohr (free atoms)

================================================================================

 ----iterations are completed or convergence reached----

 Mean square residual over all n,k,spin=   14.028E-15; max=  30.761E-15
 reduced coordinates (array xred) for    1 atoms
       0.000000000000      0.000000000000      0.000000000000
 rms dE/dt=  0.0000E+00; max dE/dt=  0.0000E+00; dE/dt below (all hartree)
    1       0.000000000000      0.000000000000      0.000000000000

 cartesian coordinates (angstrom) at end:
    1      0.00000000000000     0.00000000000000     0.00000000000000

 cartesian forces (hartree/bohr) at end:
    1     -0.00000000000000    -0.00000000000000    -0.00000000000000
 frms,max,avg= 0.0000000E+00 0.0000000E+00   0.000E+00  0.000E+00  0.000E+00 h/b

 cartesian forces (eV/Angstrom) at end:
    1     -0.00000000000000    -0.00000000000000    -0.00000000000000
 frms,max,avg= 0.0000000E+00 0.0000000E+00   0.000E+00  0.000E+00  0.000E+00 e/A
 length scales=  7.505486466327  7.505486466327  7.505486466327 bohr
              =  3.971732377361  3.971732377361  3.971732377361 angstroms
 prteigrs : about to open file tbase4_3o_DS11_EIG
 Fermi (or HOMO) energy (hartree) =   0.29640   Average Vxc (hartree)=  -0.34962
 Eigenvalues (hartree) for nkpt=  10  k points:
 kpt#   1, nband=  3, wtk=  0.03125, kpt= -0.1250  0.0000  0.0000 (reduced coord)
  -0.11507    0.60478    0.73176
      occupation numbers for kpt#   1
   2.00000    0.00000    0.00000
 prteigrs : prtvol=0 or 1, do not print more k-points.


--------------------------------------------------------------------------------
 Components of total free energy (in Hartree) :

    Kinetic energy  =  8.76931275022173E-01
    Hartree energy  =  4.34980080705880E-03
    XC energy       = -8.13990742202273E-01
    Ewald energy    = -2.74890634019206E+00
    PspCore energy  =  3.86864472165608E-02
    Loc. psp. energy=  9.58687609065017E-02
    NL   psp  energy=  4.50637040254765E-01
    >>>>> Internal E= -2.09642375818728E+00

    -kT*entropy     = -5.47597553038414E-04
    >>>>>>>>> Etotal= -2.09697135574031E+00

 Other information on the energy :
    Total energy(eV)= -5.70614925044743E+01 ; Band energy (Ha)=   3.7152949541E-01
--------------------------------------------------------------------------------

 Cartesian components of stress tensor (hartree/bohr^3)
  sigma(1 1)=  2.12914011E-09  sigma(3 2)=  0.00000000E+00
  sigma(2 2)=  2.12914011E-09  sigma(3 1)=  0.00000000E+00
  sigma(3 3)=  2.12914011E-09  sigma(2 1)=  0.00000000E+00

-Cartesian components of stress tensor (GPa)         [Pressure= -6.2641E-05 GPa]
- sigma(1 1)=  6.26414541E-05  sigma(3 2)=  0.00000000E+00
- sigma(2 2)=  6.26414541E-05  sigma(3 1)=  0.00000000E+00
- sigma(3 3)=  6.26414541E-05  sigma(2 1)=  0.00000000E+00

================================================================================
== DATASET 12 ==================================================================
-   nproc =    2

 mkfilename : getwfk/=0, take file _WFK from output of DATASET  11.

 Exchange-correlation functional for the present dataset will be:
  LDA: new Teter (4/93) with spin-polarized option - ixc=1
 Citation for XC functional:
  S. Goedecker, M. Teter, J. Huetter, PRB 54, 1703 (1996)

 Real(R)+Recip(G) space primitive vectors, cartesian coordinates (Bohr,Bohr^-1):
 R(1)=  0.0000000  3.8000000  3.8000000  G(1)= -0.1315789  0.1315789  0.1315789
 R(2)=  3.8000000  0.0000000  3.8000000  G(2)=  0.1315789 -0.1315789  0.1315789
 R(3)=  3.8000000  3.8000000  0.0000000  G(3)=  0.1315789  0.1315789 -0.1315789
 Unit cell volume ucvol=  1.0974400E+02 bohr^3
 Angles (23,13,12)=  6.00000000E+01  6.00000000E+01  6.00000000E+01 degrees

 getcut: wavevector=  0.0000  0.0000  0.0000  ngfft=  15  15  15
         ecut(hartree)=      6.615   => boxcut(ratio)=   2.26154

 getcut : COMMENT -
  Note that boxcut > 2.2 ; recall that boxcut=Gcut(box)/Gcut(sphere) = 2
  is sufficient for exact treatment of convolution.
  Such a large boxcut is a waste : you could raise ecut
  e.g. ecut=    8.458196 Hartrees makes boxcut=2

--------------------------------------------------------------------------------

-inwffil : will read wavefunctions from disk file tbase4_3o_DS11_WFK
_setup2: Arith. and geom. avg. npw (full set) are      89.000      88.972

================================================================================

=== [ionmov= 2] Broyden-Fletcher-Goldfard-Shanno method (forces)            
================================================================================

--- Iteration: ( 1/10) Internal Cycle: (1/1)
--------------------------------------------------------------------------------

---SELF-CONSISTENT-FIELD CONVERGENCE--------------------------------------------

     iter   Etot(hartree)      deltaE(h)  residm     vres2
 ETOT  1  -2.0973406909475    -2.097E+00 5.297E-09 9.599E-04
 ETOT  2  -2.0973411774622    -4.865E-07 4.037E-12 6.104E-05
 ETOT  3  -2.0973412125609    -3.510E-08 1.142E-09 2.741E-08

 At SCF step    3, etot is converged : 
  for the second time, diff in etot=  3.510E-08 < toldfe=  1.000E-06

 Cartesian components of stress tensor (hartree/bohr^3)
  sigma(1 1)=  9.96781930E-05  sigma(3 2)=  0.00000000E+00
  sigma(2 2)=  9.96781930E-05  sigma(3 1)=  0.00000000E+00
  sigma(3 3)=  9.96781930E-05  sigma(2 1)=  0.00000000E+00

 Integrated electronic density in atomic spheres:
 ------------------------------------------------
 Atom  Sphere_radius  Integrated_density
    1        2.00000          0.93028181

---OUTPUT-----------------------------------------------------------------------

 Cartesian coordinates (xcart) [bohr]
  0.00000000000000E+00  0.00000000000000E+00  0.00000000000000E+00
 Reduced coordinates (xred)
  0.00000000000000E+00  0.00000000000000E+00  0.00000000000000E+00
 Cartesian forces (fcart) [Ha/bohr]; max,rms= 0.00000E+00 0.00000E+00 (free atoms)
 -0.00000000000000E+00 -0.00000000000000E+00 -0.00000000000000E+00
 Reduced forces (fred)
  0.00000000000000E+00  0.00000000000000E+00  0.00000000000000E+00
 Scale of Primitive Cell (acell) [bohr]
  7.60000000000000E+00  7.60000000000000E+00  7.60000000000000E+00
 Real space primitive translations (rprimd) [bohr]
  0.00000000000000E+00  3.80000000000000E+00  3.80000000000000E+00
  3.80000000000000E+00  0.00000000000000E+00  3.80000000000000E+00
  3.80000000000000E+00  3.80000000000000E+00  0.00000000000000E+00
 Unitary Cell Volume (ucvol) [Bohr^3]=  1.09744000000000E+02
 Angles (23,13,12)= [degrees]
  6.00000000000000E+01  6.00000000000000E+01  6.00000000000000E+01
 Lengths [Bohr]
  5.37401153701776E+00  5.37401153701776E+00  5.37401153701776E+00
 Stress tensor in cartesian coordinates (strten) [Ha/bohr^3]
  9.96781929921578E-05  0.00000000000000E+00  0.00000000000000E+00
  0.00000000000000E+00  9.96781929921578E-05  0.00000000000000E+00
  0.00000000000000E+00  0.00000000000000E+00  9.96781929921576E-05
 Total energy (etotal) [Ha]= -2.09734121256090E+00

--- Iteration: ( 2/10) Internal Cycle: (1/1)
--------------------------------------------------------------------------------

---SELF-CONSISTENT-FIELD CONVERGENCE--------------------------------------------

     iter   Etot(hartree)      deltaE(h)  residm     vres2
 ETOT  1  -2.0974285171613    -2.097E+00 4.747E-08 7.900E-05
 ETOT  2  -2.0974285527161    -3.555E-08 1.204E-13 4.839E-06
 ETOT  3  -2.0974285551592    -2.443E-09 5.079E-11 4.070E-09

 At SCF step    3, etot is converged : 
  for the second time, diff in etot=  2.443E-09 < toldfe=  1.000E-06

 Cartesian components of stress tensor (hartree/bohr^3)
  sigma(1 1)=  7.81321104E-05  sigma(3 2)=  0.00000000E+00
  sigma(2 2)=  7.81321104E-05  sigma(3 1)=  0.00000000E+00
  sigma(3 3)=  7.81321104E-05  sigma(2 1)=  0.00000000E+00

 Integrated electronic density in atomic spheres:
 ------------------------------------------------
 Atom  Sphere_radius  Integrated_density
    1        2.00000          0.92563842

---OUTPUT-----------------------------------------------------------------------

 Cartesian coordinates (xcart) [bohr]
  0.00000000000000E+00  0.00000000000000E+00  0.00000000000000E+00
 Reduced coordinates (xred)
  0.00000000000000E+00  0.00000000000000E+00  0.00000000000000E+00
 Cartesian forces (fcart) [Ha/bohr]; max,rms= 0.00000E+00 0.00000E+00 (free atoms)
 -0.00000000000000E+00 -0.00000000000000E+00 -0.00000000000000E+00
 Reduced forces (fred)
  0.00000000000000E+00  0.00000000000000E+00  0.00000000000000E+00
 Scale of Primitive Cell (acell) [bohr]
  7.57727337199779E+00  7.57727337199779E+00  7.57727337199779E+00
 Real space primitive translations (rprimd) [bohr]
  0.00000000000000E+00  3.78863668599889E+00  3.78863668599889E+00
  3.78863668599889E+00  0.00000000000000E+00  3.78863668599889E+00
  3.78863668599889E+00  3.78863668599889E+00  0.00000000000000E+00
 Unitary Cell Volume (ucvol) [Bohr^3]=  1.08762423588206E+02
 Angles (23,13,12)= [degrees]
  6.00000000000000E+01  6.00000000000000E+01  6.00000000000000E+01
 Lengths [Bohr]
  5.35794138424389E+00  5.35794138424389E+00  5.35794138424389E+00
 Stress tensor in cartesian coordinates (strten) [Ha/bohr^3]
  7.81321103750750E-05  0.00000000000000E+00  0.00000000000000E+00
  0.00000000000000E+00  7.81321103750750E-05  0.00000000000000E+00
  0.00000000000000E+00  0.00000000000000E+00  7.81321103750748E-05
 Total energy (etotal) [Ha]= -2.09742855515920E+00

 Difference of energy with previous step (new-old):
           Absolute (Ha)=-8.73426E-05
           Relative     =-4.16436E-05

--- Iteration: ( 3/10) Internal Cycle: (1/1)
--------------------------------------------------------------------------------

---SELF-CONSISTENT-FIELD CONVERGENCE--------------------------------------------

     iter   Etot(hartree)      deltaE(h)  residm     vres2
 ETOT  1  -2.0975506548917    -2.098E+00 1.192E-05 9.557E-04
 ETOT  2  -2.0975510660307    -4.111E-07 8.083E-13 5.762E-05
 ETOT  3  -2.0975510936785    -2.765E-08 5.559E-10 4.952E-08

 At SCF step    3, etot is converged : 
  for the second time, diff in etot=  2.765E-08 < toldfe=  1.000E-06

 Cartesian components of stress tensor (hartree/bohr^3)
  sigma(1 1)= -9.07679682E-06  sigma(3 2)=  0.00000000E+00
  sigma(2 2)= -9.07679682E-06  sigma(3 1)=  0.00000000E+00
  sigma(3 3)= -9.07679682E-06  sigma(2 1)=  0.00000000E+00

 Integrated electronic density in atomic spheres:
 ------------------------------------------------
 Atom  Sphere_radius  Integrated_density
    1        2.00000          0.91530384

---OUTPUT-----------------------------------------------------------------------

 Cartesian coordinates (xcart) [bohr]
  0.00000000000000E+00  0.00000000000000E+00  0.00000000000000E+00
 Reduced coordinates (xred)
  0.00000000000000E+00  0.00000000000000E+00  0.00000000000000E+00
 Cartesian forces (fcart) [Ha/bohr]; max,rms= 0.00000E+00 0.00000E+00 (free atoms)
 -0.00000000000000E+00 -0.00000000000000E+00 -0.00000000000000E+00
 Reduced forces (fred)
  0.00000000000000E+00  0.00000000000000E+00  0.00000000000000E+00
 Scale of Primitive Cell (acell) [bohr]
  7.49816327754977E+00  7.49816327754977E+00  7.49816327754977E+00
 Real space primitive translations (rprimd) [bohr]
  0.00000000000000E+00  3.74908163877488E+00  3.74908163877488E+00
  3.74908163877488E+00  0.00000000000000E+00  3.74908163877488E+00
  3.74908163877488E+00  3.74908163877488E+00  0.00000000000000E+00
 Unitary Cell Volume (ucvol) [Bohr^3]=  1.05391282246297E+02
 Angles (23,13,12)= [degrees]
  6.00000000000000E+01  6.00000000000000E+01  6.00000000000000E+01
 Lengths [Bohr]
  5.30200209999939E+00  5.30200209999939E+00  5.30200209999939E+00
 Stress tensor in cartesian coordinates (strten) [Ha/bohr^3]
 -9.07679682487388E-06  0.00000000000000E+00  0.00000000000000E+00
  0.00000000000000E+00 -9.07679682487383E-06  0.00000000000000E+00
  0.00000000000000E+00  0.00000000000000E+00 -9.07679682487394E-06
 Total energy (etotal) [Ha]= -2.09755109367848E+00

 Difference of energy with previous step (new-old):
           Absolute (Ha)=-1.22539E-04
           Relative     =-5.84215E-05

--- Iteration: ( 4/10) Internal Cycle: (1/1)
--------------------------------------------------------------------------------

---SELF-CONSISTENT-FIELD CONVERGENCE--------------------------------------------

     iter   Etot(hartree)      deltaE(h)  residm     vres2
 ETOT  1  -2.0975525162867    -2.098E+00 9.979E-11 1.124E-05
 ETOT  2  -2.0975525211709    -4.884E-09 1.026E-14 6.831E-07
 ETOT  3  -2.0975525215009    -3.299E-10 6.725E-12 5.344E-10

 At SCF step    3, etot is converged : 
  for the second time, diff in etot=  3.299E-10 < toldfe=  1.000E-06

 Cartesian components of stress tensor (hartree/bohr^3)
  sigma(1 1)=  6.34224504E-07  sigma(3 2)=  0.00000000E+00
  sigma(2 2)=  6.34224504E-07  sigma(3 1)=  0.00000000E+00
  sigma(3 3)=  6.34224504E-07  sigma(2 1)=  0.00000000E+00

 Integrated electronic density in atomic spheres:
 ------------------------------------------------
 Atom  Sphere_radius  Integrated_density
    1        2.00000          0.91136257

---OUTPUT-----------------------------------------------------------------------

 Cartesian coordinates (xcart) [bohr]
  0.00000000000000E+00  0.00000000000000E+00  0.00000000000000E+00
 Reduced coordinates (xred)
  0.00000000000000E+00  0.00000000000000E+00  0.00000000000000E+00
 Cartesian forces (fcart) [Ha/bohr]; max,rms= 0.00000E+00 0.00000E+00 (free atoms)
 -0.00000000000000E+00 -0.00000000000000E+00 -0.00000000000000E+00
 Reduced forces (fred)
  0.00000000000000E+00  0.00000000000000E+00  0.00000000000000E+00
 Scale of Primitive Cell (acell) [bohr]
  7.50616775160381E+00  7.50616775160381E+00  7.50616775160381E+00
 Real space primitive translations (rprimd) [bohr]
  0.00000000000000E+00  3.75308387580190E+00  3.75308387580190E+00
  3.75308387580190E+00  0.00000000000000E+00  3.75308387580190E+00
  3.75308387580190E+00  3.75308387580190E+00  0.00000000000000E+00
 Unitary Cell Volume (ucvol) [Bohr^3]=  1.05729166060967E+02
 Angles (23,13,12)= [degrees]
  6.00000000000000E+01  6.00000000000000E+01  6.00000000000000E+01
 Lengths [Bohr]
  5.30766211788283E+00  5.30766211788283E+00  5.30766211788283E+00
 Stress tensor in cartesian coordinates (strten) [Ha/bohr^3]
  6.34224503689898E-07  0.00000000000000E+00  0.00000000000000E+00
  0.00000000000000E+00  6.34224503689898E-07  0.00000000000000E+00
  0.00000000000000E+00  0.00000000000000E+00  6.34224503690060E-07
 Total energy (etotal) [Ha]= -2.09755252150085E+00

 Difference of energy with previous step (new-old):
           Absolute (Ha)=-1.42782E-06
           Relative     =-6.80709E-07

--- Iteration: ( 5/10) Internal Cycle: (1/1)
--------------------------------------------------------------------------------

---SELF-CONSISTENT-FIELD CONVERGENCE--------------------------------------------

     iter   Etot(hartree)      deltaE(h)  residm     vres2
 ETOT  1  -2.0975525285564    -2.098E+00 4.572E-13 4.771E-08
 ETOT  2  -2.0975525285771    -2.074E-11 4.349E-17 2.900E-09
 ETOT  3  -2.0975525285785    -1.393E-12 2.851E-14 2.276E-12

 At SCF step    3, etot is converged : 
  for the second time, diff in etot=  1.393E-12 < toldfe=  1.000E-06

 Cartesian components of stress tensor (hartree/bohr^3)
  sigma(1 1)=  1.86629271E-09  sigma(3 2)=  0.00000000E+00
  sigma(2 2)=  1.86629271E-09  sigma(3 1)=  0.00000000E+00
  sigma(3 3)=  1.86629271E-09  sigma(2 1)=  0.00000000E+00

 Integrated electronic density in atomic spheres:
 ------------------------------------------------
 Atom  Sphere_radius  Integrated_density
    1        2.00000          0.91125800

---OUTPUT-----------------------------------------------------------------------

 Cartesian coordinates (xcart) [bohr]
  0.00000000000000E+00  0.00000000000000E+00  0.00000000000000E+00
 Reduced coordinates (xred)
  0.00000000000000E+00  0.00000000000000E+00  0.00000000000000E+00
 Cartesian forces (fcart) [Ha/bohr]; max,rms= 0.00000E+00 0.00000E+00 (free atoms)
 -0.00000000000000E+00 -0.00000000000000E+00 -0.00000000000000E+00
 Reduced forces (fred)
  0.00000000000000E+00  0.00000000000000E+00  0.00000000000000E+00
 Scale of Primitive Cell (acell) [bohr]
  7.50564341508712E+00  7.50564341508712E+00  7.50564341508712E+00
 Real space primitive translations (rprimd) [bohr]
  0.00000000000000E+00  3.75282170754356E+00  3.75282170754356E+00
  3.75282170754356E+00  0.00000000000000E+00  3.75282170754356E+00
  3.75282170754356E+00  3.75282170754356E+00  0.00000000000000E+00
 Unitary Cell Volume (ucvol) [Bohr^3]=  1.05707010764674E+02
 Angles (23,13,12)= [degrees]
  6.00000000000000E+01  6.00000000000000E+01  6.00000000000000E+01
 Lengths [Bohr]
  5.30729135597626E+00  5.30729135597626E+00  5.30729135597626E+00
 Stress tensor in cartesian coordinates (strten) [Ha/bohr^3]
  1.86629271086737E-09  0.00000000000000E+00  0.00000000000000E+00
  0.00000000000000E+00  1.86629271097579E-09  0.00000000000000E+00
  0.00000000000000E+00  0.00000000000000E+00  1.86629271086737E-09
 Total energy (etotal) [Ha]= -2.09755252857853E+00

 Difference of energy with previous step (new-old):
           Absolute (Ha)=-7.07768E-09
           Relative     =-3.37426E-09

 At Broyd/MD step   5, gradients are converged : 
  max grad (force/stress) = 1.8663E-07 < tolmxf= 5.0000E-05 ha/bohr (free atoms)

================================================================================

 ----iterations are completed or convergence reached----

 Mean square residual over all n,k,spin=   13.009E-15; max=  28.508E-15
 reduced coordinates (array xred) for    1 atoms
       0.000000000000      0.000000000000      0.000000000000
 rms dE/dt=  0.0000E+00; max dE/dt=  0.0000E+00; dE/dt below (all hartree)
    1       0.000000000000      0.000000000000      0.000000000000

 cartesian coordinates (angstrom) at end:
    1      0.00000000000000     0.00000000000000     0.00000000000000

 cartesian forces (hartree/bohr) at end:
    1     -0.00000000000000    -0.00000000000000    -0.00000000000000
 frms,max,avg= 0.0000000E+00 0.0000000E+00   0.000E+00  0.000E+00  0.000E+00 h/b

 cartesian forces (eV/Angstrom) at end:
    1     -0.00000000000000    -0.00000000000000    -0.00000000000000
 frms,max,avg= 0.0000000E+00 0.0000000E+00   0.000E+00  0.000E+00  0.000E+00 e/A
 length scales=  7.505643415087  7.505643415087  7.505643415087 bohr
              =  3.971815431068  3.971815431068  3.971815431068 angstroms
 prteigrs : about to open file tbase4_3o_DS12_EIG
 Fermi (or HOMO) energy (hartree) =   0.29556   Average Vxc (hartree)=  -0.34963
 Eigenvalues (hartree) for nkpt=  10  k points:
 kpt#   1, nband=  3, wtk=  0.03125, kpt= -0.1250  0.0000  0.0000 (reduced coord)
  -0.11509    0.60472    0.73170
      occupation numbers for kpt#   1
   2.00000    0.00000    0.00000
 prteigrs : prtvol=0 or 1, do not print more k-points.


--------------------------------------------------------------------------------
 Components of total free energy (in Hartree) :

    Kinetic energy  =  8.76506830489626E-01
    Hartree energy  =  4.28335850921851E-03
    XC energy       = -8.13920187994476E-01
    Ewald energy    = -2.74884885845230E+00
    PspCore energy  =  3.86840203774660E-02
    Loc. psp. energy=  9.59071926099496E-02
    NL   psp  energy=  4.50825098807333E-01
    >>>>> Internal E= -2.09656254565318E+00

    -kT*entropy     = -9.89982925348675E-04
    >>>>>>>>> Etotal= -2.09755252857853E+00

 Other information on the energy :
    Total energy(eV)= -5.70773070216640E+01 ; Band energy (Ha)=   3.7129145302E-01
--------------------------------------------------------------------------------

 Cartesian components of stress tensor (hartree/bohr^3)
  sigma(1 1)=  1.86629271E-09  sigma(3 2)=  0.00000000E+00
  sigma(2 2)=  1.86629271E-09  sigma(3 1)=  0.00000000E+00
  sigma(3 3)=  1.86629271E-09  sigma(2 1)=  0.00000000E+00

-Cartesian components of stress tensor (GPa)         [Pressure= -5.4908E-05 GPa]
- sigma(1 1)=  5.49082180E-05  sigma(3 2)=  0.00000000E+00
- sigma(2 2)=  5.49082180E-05  sigma(3 1)=  0.00000000E+00
- sigma(3 3)=  5.49082180E-05  sigma(2 1)=  0.00000000E+00

================================================================================
== DATASET 13 ==================================================================
-   nproc =    2

 mkfilename : getwfk/=0, take file _WFK from output of DATASET  12.

 Exchange-correlation functional for the present dataset will be:
  LDA: new Teter (4/93) with spin-polarized option - ixc=1
 Citation for XC functional:
  S. Goedecker, M. Teter, J. Huetter, PRB 54, 1703 (1996)

 Real(R)+Recip(G) space primitive vectors, cartesian coordinates (Bohr,Bohr^-1):
 R(1)=  0.0000000  3.8000000  3.8000000  G(1)= -0.1315789  0.1315789  0.1315789
 R(2)=  3.8000000  0.0000000  3.8000000  G(2)=  0.1315789 -0.1315789  0.1315789
 R(3)=  3.8000000  3.8000000  0.0000000  G(3)=  0.1315789  0.1315789 -0.1315789
 Unit cell volume ucvol=  1.0974400E+02 bohr^3
 Angles (23,13,12)=  6.00000000E+01  6.00000000E+01  6.00000000E+01 degrees

 getcut: wavevector=  0.0000  0.0000  0.0000  ngfft=  15  15  15
         ecut(hartree)=      6.615   => boxcut(ratio)=   2.26154

 getcut : COMMENT -
  Note that boxcut > 2.2 ; recall that boxcut=Gcut(box)/Gcut(sphere) = 2
  is sufficient for exact treatment of convolution.
  Such a large boxcut is a waste : you could raise ecut
  e.g. ecut=    8.458196 Hartrees makes boxcut=2

--------------------------------------------------------------------------------

-inwffil : will read wavefunctions from disk file tbase4_3o_DS12_WFK
_setup2: Arith. and geom. avg. npw (full set) are      89.000      88.972

================================================================================

=== [ionmov= 2] Broyden-Fletcher-Goldfard-Shanno method (forces)            
================================================================================

--- Iteration: ( 1/10) Internal Cycle: (1/1)
--------------------------------------------------------------------------------

---SELF-CONSISTENT-FIELD CONVERGENCE--------------------------------------------

     iter   Etot(hartree)      deltaE(h)  residm     vres2
 ETOT  1  -2.0975935040936    -2.098E+00 5.251E-09 9.650E-04
 ETOT  2  -2.0975939946222    -4.905E-07 4.072E-12 6.132E-05
 ETOT  3  -2.0975940299759    -3.535E-08 1.149E-09 2.707E-08

 At SCF step    3, etot is converged : 
  for the second time, diff in etot=  3.535E-08 < toldfe=  1.000E-06

 Cartesian components of stress tensor (hartree/bohr^3)
  sigma(1 1)=  1.03755889E-04  sigma(3 2)=  0.00000000E+00
  sigma(2 2)=  1.03755889E-04  sigma(3 1)=  0.00000000E+00
  sigma(3 3)=  1.03755889E-04  sigma(2 1)=  0.00000000E+00

 Integrated electronic density in atomic spheres:
 ------------------------------------------------
 Atom  Sphere_radius  Integrated_density
    1        2.00000          0.93021433

---OUTPUT-----------------------------------------------------------------------

 Cartesian coordinates (xcart) [bohr]
  0.00000000000000E+00  0.00000000000000E+00  0.00000000000000E+00
 Reduced coordinates (xred)
  0.00000000000000E+00  0.00000000000000E+00  0.00000000000000E+00
 Cartesian forces (fcart) [Ha/bohr]; max,rms= 0.00000E+00 0.00000E+00 (free atoms)
 -0.00000000000000E+00 -0.00000000000000E+00 -0.00000000000000E+00
 Reduced forces (fred)
  0.00000000000000E+00  0.00000000000000E+00  0.00000000000000E+00
 Scale of Primitive Cell (acell) [bohr]
  7.60000000000000E+00  7.60000000000000E+00  7.60000000000000E+00
 Real space primitive translations (rprimd) [bohr]
  0.00000000000000E+00  3.80000000000000E+00  3.80000000000000E+00
  3.80000000000000E+00  0.00000000000000E+00  3.80000000000000E+00
  3.80000000000000E+00  3.80000000000000E+00  0.00000000000000E+00
 Unitary Cell Volume (ucvol) [Bohr^3]=  1.09744000000000E+02
 Angles (23,13,12)= [degrees]
  6.00000000000000E+01  6.00000000000000E+01  6.00000000000000E+01
 Lengths [Bohr]
  5.37401153701776E+00  5.37401153701776E+00  5.37401153701776E+00
 Stress tensor in cartesian coordinates (strten) [Ha/bohr^3]
  1.03755888655789E-04  0.00000000000000E+00  0.00000000000000E+00
  0.00000000000000E+00  1.03755888655789E-04  0.00000000000000E+00
  0.00000000000000E+00  0.00000000000000E+00  1.03755888655789E-04
 Total energy (etotal) [Ha]= -2.09759402997591E+00

--- Iteration: ( 2/10) Internal Cycle: (1/1)
--------------------------------------------------------------------------------

---SELF-CONSISTENT-FIELD CONVERGENCE--------------------------------------------

     iter   Etot(hartree)      deltaE(h)  residm     vres2
 ETOT  1  -2.0976886796364    -2.098E+00 5.989E-08 8.602E-05
 ETOT  2  -2.0976887181915    -3.856E-08 1.378E-13 5.278E-06
 ETOT  3  -2.0976887208497    -2.658E-09 5.538E-11 4.281E-09

 At SCF step    3, etot is converged : 
  for the second time, diff in etot=  2.658E-09 < toldfe=  1.000E-06

 Cartesian components of stress tensor (hartree/bohr^3)
  sigma(1 1)=  8.14596692E-05  sigma(3 2)=  0.00000000E+00
  sigma(2 2)=  8.14596692E-05  sigma(3 1)=  0.00000000E+00
  sigma(3 3)=  8.14596692E-05  sigma(2 1)=  0.00000000E+00

 Integrated electronic density in atomic spheres:
 ------------------------------------------------
 Atom  Sphere_radius  Integrated_density
    1        2.00000          0.92536885

---OUTPUT-----------------------------------------------------------------------

 Cartesian coordinates (xcart) [bohr]
  0.00000000000000E+00  0.00000000000000E+00  0.00000000000000E+00
 Reduced coordinates (xred)
  0.00000000000000E+00  0.00000000000000E+00  0.00000000000000E+00
 Cartesian forces (fcart) [Ha/bohr]; max,rms= 0.00000E+00 0.00000E+00 (free atoms)
 -0.00000000000000E+00 -0.00000000000000E+00 -0.00000000000000E+00
 Reduced forces (fred)
  0.00000000000000E+00  0.00000000000000E+00  0.00000000000000E+00
 Scale of Primitive Cell (acell) [bohr]
  7.57634365738648E+00  7.57634365738648E+00  7.57634365738648E+00
 Real space primitive translations (rprimd) [bohr]
  0.00000000000000E+00  3.78817182869324E+00  3.78817182869324E+00
  3.78817182869324E+00  0.00000000000000E+00  3.78817182869324E+00
  3.78817182869324E+00  3.78817182869324E+00  0.00000000000000E+00
 Unitary Cell Volume (ucvol) [Bohr^3]=  1.08722393776838E+02
 Angles (23,13,12)= [degrees]
  6.00000000000000E+01  6.00000000000000E+01  6.00000000000000E+01
 Lengths [Bohr]
  5.35728397673767E+00  5.35728397673767E+00  5.35728397673767E+00
 Stress tensor in cartesian coordinates (strten) [Ha/bohr^3]
  8.14596691725459E-05  0.00000000000000E+00  0.00000000000000E+00
  0.00000000000000E+00  8.14596691725458E-05  0.00000000000000E+00
  0.00000000000000E+00  0.00000000000000E+00  8.14596691725462E-05
 Total energy (etotal) [Ha]= -2.09768872084966E+00

 Difference of energy with previous step (new-old):
           Absolute (Ha)=-9.46909E-05
           Relative     =-4.51416E-05

--- Iteration: ( 3/10) Internal Cycle: (1/1)
--------------------------------------------------------------------------------

---SELF-CONSISTENT-FIELD CONVERGENCE--------------------------------------------

     iter   Etot(hartree)      deltaE(h)  residm     vres2
 ETOT  1  -2.0978211668003    -2.098E+00 8.341E-06 1.053E-03
 ETOT  2  -2.0978216163075    -4.495E-07 8.961E-13 6.355E-05
 ETOT  3  -2.0978216466589    -3.035E-08 6.099E-10 5.257E-08

 At SCF step    3, etot is converged : 
  for the second time, diff in etot=  3.035E-08 < toldfe=  1.000E-06

 Cartesian components of stress tensor (hartree/bohr^3)
  sigma(1 1)= -9.95929564E-06  sigma(3 2)=  0.00000000E+00
  sigma(2 2)= -9.95929564E-06  sigma(3 1)=  0.00000000E+00
  sigma(3 3)= -9.95929564E-06  sigma(2 1)=  0.00000000E+00

 Integrated electronic density in atomic spheres:
 ------------------------------------------------
 Atom  Sphere_radius  Integrated_density
    1        2.00000          0.91426417

---OUTPUT-----------------------------------------------------------------------

 Cartesian coordinates (xcart) [bohr]
  0.00000000000000E+00  0.00000000000000E+00  0.00000000000000E+00
 Reduced coordinates (xred)
  0.00000000000000E+00  0.00000000000000E+00  0.00000000000000E+00
 Cartesian forces (fcart) [Ha/bohr]; max,rms= 0.00000E+00 0.00000E+00 (free atoms)
 -0.00000000000000E+00 -0.00000000000000E+00 -0.00000000000000E+00
 Reduced forces (fred)
  0.00000000000000E+00  0.00000000000000E+00  0.00000000000000E+00
 Scale of Primitive Cell (acell) [bohr]
  7.49353566674726E+00  7.49353566674726E+00  7.49353566674726E+00
 Real space primitive translations (rprimd) [bohr]
  0.00000000000000E+00  3.74676783337363E+00  3.74676783337363E+00
  3.74676783337363E+00  0.00000000000000E+00  3.74676783337363E+00
  3.74676783337363E+00  3.74676783337363E+00  0.00000000000000E+00
 Unitary Cell Volume (ucvol) [Bohr^3]=  1.05196270928643E+02
 Angles (23,13,12)= [degrees]
  6.00000000000000E+01  6.00000000000000E+01  6.00000000000000E+01
 Lengths [Bohr]
  5.29872988502025E+00  5.29872988502025E+00  5.29872988502025E+00
 Stress tensor in cartesian coordinates (strten) [Ha/bohr^3]
 -9.95929564343739E-06  0.00000000000000E+00  0.00000000000000E+00
  0.00000000000000E+00 -9.95929564343723E-06  0.00000000000000E+00
  0.00000000000000E+00  0.00000000000000E+00 -9.95929564343761E-06
 Total energy (etotal) [Ha]= -2.09782164665888E+00

 Difference of energy with previous step (new-old):
           Absolute (Ha)=-1.32926E-04
           Relative     =-6.33657E-05

--- Iteration: ( 4/10) Internal Cycle: (1/1)
--------------------------------------------------------------------------------

---SELF-CONSISTENT-FIELD CONVERGENCE--------------------------------------------

     iter   Etot(hartree)      deltaE(h)  residm     vres2
 ETOT  1  -2.0978233597270    -2.098E+00 1.767E-10 1.363E-05
 ETOT  2  -2.0978233656115    -5.884E-09 1.250E-14 8.294E-07
 ETOT  3  -2.0978233660106    -3.991E-10 8.144E-12 6.219E-10

 At SCF step    3, etot is converged : 
  for the second time, diff in etot=  3.991E-10 < toldfe=  1.000E-06

 Cartesian components of stress tensor (hartree/bohr^3)
  sigma(1 1)=  6.51058888E-07  sigma(3 2)=  0.00000000E+00
  sigma(2 2)=  6.51058888E-07  sigma(3 1)=  0.00000000E+00
  sigma(3 3)=  6.51058888E-07  sigma(2 1)=  0.00000000E+00

 Integrated electronic density in atomic spheres:
 ------------------------------------------------
 Atom  Sphere_radius  Integrated_density
    1        2.00000          0.91047160

---OUTPUT-----------------------------------------------------------------------

 Cartesian coordinates (xcart) [bohr]
  0.00000000000000E+00  0.00000000000000E+00  0.00000000000000E+00
 Reduced coordinates (xred)
  0.00000000000000E+00  0.00000000000000E+00  0.00000000000000E+00
 Cartesian forces (fcart) [Ha/bohr]; max,rms= 0.00000E+00 0.00000E+00 (free atoms)
 -0.00000000000000E+00 -0.00000000000000E+00 -0.00000000000000E+00
 Reduced forces (fred)
  0.00000000000000E+00  0.00000000000000E+00  0.00000000000000E+00
 Scale of Primitive Cell (acell) [bohr]
  7.50229524277544E+00  7.50229524277544E+00  7.50229524277544E+00
 Real space primitive translations (rprimd) [bohr]
  0.00000000000000E+00  3.75114762138772E+00  3.75114762138772E+00
  3.75114762138772E+00  0.00000000000000E+00  3.75114762138772E+00
  3.75114762138772E+00  3.75114762138772E+00  0.00000000000000E+00
 Unitary Cell Volume (ucvol) [Bohr^3]=  1.05565610190896E+02
 Angles (23,13,12)= [degrees]
  6.00000000000000E+01  6.00000000000000E+01  6.00000000000000E+01
 Lengths [Bohr]
  5.30492384063009E+00  5.30492384063009E+00  5.30492384063009E+00
 Stress tensor in cartesian coordinates (strten) [Ha/bohr^3]
  6.51058888037300E-07  0.00000000000000E+00  0.00000000000000E+00
  0.00000000000000E+00  6.51058888037409E-07  0.00000000000000E+00
  0.00000000000000E+00  0.00000000000000E+00  6.51058888037409E-07
 Total energy (etotal) [Ha]= -2.09782336601063E+00

 Difference of energy with previous step (new-old):
           Absolute (Ha)=-1.71935E-06
           Relative     =-8.19589E-07

--- Iteration: ( 5/10) Internal Cycle: (1/1)
--------------------------------------------------------------------------------

---SELF-CONSISTENT-FIELD CONVERGENCE--------------------------------------------

     iter   Etot(hartree)      deltaE(h)  residm     vres2
 ETOT  1  -2.0978233734622    -2.098E+00 7.770E-13 5.108E-08
 ETOT  2  -2.0978233734842    -2.201E-11 4.679E-17 3.108E-09
 ETOT  3  -2.0978233734857    -1.494E-12 3.048E-14 2.338E-12

 At SCF step    3, etot is converged : 
  for the second time, diff in etot=  1.494E-12 < toldfe=  1.000E-06

 Cartesian components of stress tensor (hartree/bohr^3)
  sigma(1 1)=  2.59242556E-09  sigma(3 2)=  0.00000000E+00
  sigma(2 2)=  2.59242556E-09  sigma(3 1)=  0.00000000E+00
  sigma(3 3)=  2.59242556E-09  sigma(2 1)=  0.00000000E+00

 Integrated electronic density in atomic spheres:
 ------------------------------------------------
 Atom  Sphere_radius  Integrated_density
    1        2.00000          0.91036386

---OUTPUT-----------------------------------------------------------------------

 Cartesian coordinates (xcart) [bohr]
  0.00000000000000E+00  0.00000000000000E+00  0.00000000000000E+00
 Reduced coordinates (xred)
  0.00000000000000E+00  0.00000000000000E+00  0.00000000000000E+00
 Cartesian forces (fcart) [Ha/bohr]; max,rms= 0.00000E+00 0.00000E+00 (free atoms)
 -0.00000000000000E+00 -0.00000000000000E+00 -0.00000000000000E+00
 Reduced forces (fred)
  0.00000000000000E+00  0.00000000000000E+00  0.00000000000000E+00
 Scale of Primitive Cell (acell) [bohr]
  7.50175597803084E+00  7.50175597803084E+00  7.50175597803084E+00
 Real space primitive translations (rprimd) [bohr]
  0.00000000000000E+00  3.75087798901542E+00  3.75087798901542E+00
  3.75087798901542E+00  0.00000000000000E+00  3.75087798901542E+00
  3.75087798901542E+00  3.75087798901542E+00  0.00000000000000E+00
 Unitary Cell Volume (ucvol) [Bohr^3]=  1.05542847668986E+02
 Angles (23,13,12)= [degrees]
  6.00000000000000E+01  6.00000000000000E+01  6.00000000000000E+01
 Lengths [Bohr]
  5.30454252287233E+00  5.30454252287233E+00  5.30454252287233E+00
 Stress tensor in cartesian coordinates (strten) [Ha/bohr^3]
  2.59242556479959E-09  0.00000000000000E+00  0.00000000000000E+00
  0.00000000000000E+00  2.59242556474538E-09  0.00000000000000E+00
  0.00000000000000E+00  0.00000000000000E+00  2.59242556469117E-09
 Total energy (etotal) [Ha]= -2.09782337348571E+00

 Difference of energy with previous step (new-old):
           Absolute (Ha)=-7.47509E-09
           Relative     =-3.56326E-09

 At Broyd/MD step   5, gradients are converged : 
  max grad (force/stress) = 2.5924E-07 < tolmxf= 5.0000E-05 ha/bohr (free atoms)

================================================================================

 ----iterations are completed or convergence reached----

 Mean square residual over all n,k,spin=   13.903E-15; max=  30.477E-15
 reduced coordinates (array xred) for    1 atoms
       0.000000000000      0.000000000000      0.000000000000
 rms dE/dt=  0.0000E+00; max dE/dt=  0.0000E+00; dE/dt below (all hartree)
    1       0.000000000000      0.000000000000      0.000000000000

 cartesian coordinates (angstrom) at end:
    1      0.00000000000000     0.00000000000000     0.00000000000000

 cartesian forces (hartree/bohr) at end:
    1     -0.00000000000000    -0.00000000000000    -0.00000000000000
 frms,max,avg= 0.0000000E+00 0.0000000E+00   0.000E+00  0.000E+00  0.000E+00 h/b

 cartesian forces (eV/Angstrom) at end:
    1     -0.00000000000000    -0.00000000000000    -0.00000000000000
 frms,max,avg= 0.0000000E+00 0.0000000E+00   0.000E+00  0.000E+00  0.000E+00 e/A
 length scales=  7.501755978031  7.501755978031  7.501755978031 bohr
              =  3.969758287978  3.969758287978  3.969758287978 angstroms
 prteigrs : about to open file tbase4_3o_DS13_EIG
 Fermi (or HOMO) energy (hartree) =   0.29329   Average Vxc (hartree)=  -0.34980
 Eigenvalues (hartree) for nkpt=  10  k points:
 kpt#   1, nband=  3, wtk=  0.03125, kpt= -0.1250  0.0000  0.0000 (reduced coord)
  -0.11490    0.60557    0.73268
      occupation numbers for kpt#   1
   2.00000    0.00000    0.00000
 prteigrs : prtvol=0 or 1, do not print more k-points.


--------------------------------------------------------------------------------
 Components of total free energy (in Hartree) :

    Kinetic energy  =  8.76343242466164E-01
    Hartree energy  =  4.27045849963316E-03
    XC energy       = -8.14287496194838E-01
    Ewald energy    = -2.75027332186401E+00
    PspCore energy  =  3.87441901443340E-02
    Loc. psp. energy=  9.66921512112859E-02
    NL   psp  energy=  4.51099161380964E-01
    >>>>> Internal E= -2.09741161435647E+00

    -kT*entropy     = -4.11759129247231E-04
    >>>>>>>>> Etotal= -2.09782337348571E+00

 Other information on the energy :
    Total energy(eV)= -5.70846770863999E+01 ; Band energy (Ha)=   3.7167902440E-01
--------------------------------------------------------------------------------

 Cartesian components of stress tensor (hartree/bohr^3)
  sigma(1 1)=  2.59242556E-09  sigma(3 2)=  0.00000000E+00
  sigma(2 2)=  2.59242556E-09  sigma(3 1)=  0.00000000E+00
  sigma(3 3)=  2.59242556E-09  sigma(2 1)=  0.00000000E+00

-Cartesian components of stress tensor (GPa)         [Pressure= -7.6272E-05 GPa]
- sigma(1 1)=  7.62717805E-05  sigma(3 2)=  0.00000000E+00
- sigma(2 2)=  7.62717805E-05  sigma(3 1)=  0.00000000E+00
- sigma(3 3)=  7.62717805E-05  sigma(2 1)=  0.00000000E+00

================================================================================
== DATASET 14 ==================================================================
-   nproc =    2

 mkfilename : getwfk/=0, take file _WFK from output of DATASET  13.

 Exchange-correlation functional for the present dataset will be:
  LDA: new Teter (4/93) with spin-polarized option - ixc=1
 Citation for XC functional:
  S. Goedecker, M. Teter, J. Huetter, PRB 54, 1703 (1996)

 Real(R)+Recip(G) space primitive vectors, cartesian coordinates (Bohr,Bohr^-1):
 R(1)=  0.0000000  3.8000000  3.8000000  G(1)= -0.1315789  0.1315789  0.1315789
 R(2)=  3.8000000  0.0000000  3.8000000  G(2)=  0.1315789 -0.1315789  0.1315789
 R(3)=  3.8000000  3.8000000  0.0000000  G(3)=  0.1315789  0.1315789 -0.1315789
 Unit cell volume ucvol=  1.0974400E+02 bohr^3
 Angles (23,13,12)=  6.00000000E+01  6.00000000E+01  6.00000000E+01 degrees

 getcut: wavevector=  0.0000  0.0000  0.0000  ngfft=  15  15  15
         ecut(hartree)=      6.615   => boxcut(ratio)=   2.26154

 getcut : COMMENT -
  Note that boxcut > 2.2 ; recall that boxcut=Gcut(box)/Gcut(sphere) = 2
  is sufficient for exact treatment of convolution.
  Such a large boxcut is a waste : you could raise ecut
  e.g. ecut=    8.458196 Hartrees makes boxcut=2

--------------------------------------------------------------------------------

-inwffil : will read wavefunctions from disk file tbase4_3o_DS13_WFK
_setup2: Arith. and geom. avg. npw (full set) are      89.000      88.972

================================================================================

=== [ionmov= 2] Broyden-Fletcher-Goldfard-Shanno method (forces)            
================================================================================

--- Iteration: ( 1/10) Internal Cycle: (1/1)
--------------------------------------------------------------------------------

---SELF-CONSISTENT-FIELD CONVERGENCE--------------------------------------------

     iter   Etot(hartree)      deltaE(h)  residm     vres2
 ETOT  1  -2.0977809590328    -2.098E+00 5.571E-09 1.052E-03
 ETOT  2  -2.0977814952404    -5.362E-07 4.448E-12 6.680E-05
 ETOT  3  -2.0977815338392    -3.860E-08 1.253E-09 2.913E-08

 At SCF step    3, etot is converged : 
  for the second time, diff in etot=  3.860E-08 < toldfe=  1.000E-06

 Cartesian components of stress tensor (hartree/bohr^3)
  sigma(1 1)=  1.00442874E-04  sigma(3 2)=  0.00000000E+00
  sigma(2 2)=  1.00442874E-04  sigma(3 1)=  0.00000000E+00
  sigma(3 3)=  1.00442874E-04  sigma(2 1)=  0.00000000E+00

 Integrated electronic density in atomic spheres:
 ------------------------------------------------
 Atom  Sphere_radius  Integrated_density
    1        2.00000          0.93035776

---OUTPUT-----------------------------------------------------------------------

 Cartesian coordinates (xcart) [bohr]
  0.00000000000000E+00  0.00000000000000E+00  0.00000000000000E+00
 Reduced coordinates (xred)
  0.00000000000000E+00  0.00000000000000E+00  0.00000000000000E+00
 Cartesian forces (fcart) [Ha/bohr]; max,rms= 0.00000E+00 0.00000E+00 (free atoms)
 -0.00000000000000E+00 -0.00000000000000E+00 -0.00000000000000E+00
 Reduced forces (fred)
  0.00000000000000E+00  0.00000000000000E+00  0.00000000000000E+00
 Scale of Primitive Cell (acell) [bohr]
  7.60000000000000E+00  7.60000000000000E+00  7.60000000000000E+00
 Real space primitive translations (rprimd) [bohr]
  0.00000000000000E+00  3.80000000000000E+00  3.80000000000000E+00
  3.80000000000000E+00  0.00000000000000E+00  3.80000000000000E+00
  3.80000000000000E+00  3.80000000000000E+00  0.00000000000000E+00
 Unitary Cell Volume (ucvol) [Bohr^3]=  1.09744000000000E+02
 Angles (23,13,12)= [degrees]
  6.00000000000000E+01  6.00000000000000E+01  6.00000000000000E+01
 Lengths [Bohr]
  5.37401153701776E+00  5.37401153701776E+00  5.37401153701776E+00
 Stress tensor in cartesian coordinates (strten) [Ha/bohr^3]
  1.00442873859632E-04  0.00000000000000E+00  0.00000000000000E+00
  0.00000000000000E+00  1.00442873859632E-04  0.00000000000000E+00
  0.00000000000000E+00  0.00000000000000E+00  1.00442873859632E-04
 Total energy (etotal) [Ha]= -2.09778153383922E+00

--- Iteration: ( 2/10) Internal Cycle: (1/1)
--------------------------------------------------------------------------------

---SELF-CONSISTENT-FIELD CONVERGENCE--------------------------------------------

     iter   Etot(hartree)      deltaE(h)  residm     vres2
 ETOT  1  -2.0978702882090    -2.098E+00 4.957E-08 8.086E-05
 ETOT  2  -2.0978703243783    -3.617E-08 1.249E-13 4.967E-06
 ETOT  3  -2.0978703268795    -2.501E-09 5.218E-11 3.936E-09

 At SCF step    3, etot is converged : 
  for the second time, diff in etot=  2.501E-09 < toldfe=  1.000E-06

 Cartesian components of stress tensor (hartree/bohr^3)
  sigma(1 1)=  7.89502938E-05  sigma(3 2)=  0.00000000E+00
  sigma(2 2)=  7.89502938E-05  sigma(3 1)=  0.00000000E+00
  sigma(3 3)=  7.89502938E-05  sigma(2 1)=  0.00000000E+00

 Integrated electronic density in atomic spheres:
 ------------------------------------------------
 Atom  Sphere_radius  Integrated_density
    1        2.00000          0.92565503

---OUTPUT-----------------------------------------------------------------------

 Cartesian coordinates (xcart) [bohr]
  0.00000000000000E+00  0.00000000000000E+00  0.00000000000000E+00
 Reduced coordinates (xred)
  0.00000000000000E+00  0.00000000000000E+00  0.00000000000000E+00
 Cartesian forces (fcart) [Ha/bohr]; max,rms= 0.00000E+00 0.00000E+00 (free atoms)
 -0.00000000000000E+00 -0.00000000000000E+00 -0.00000000000000E+00
 Reduced forces (fred)
  0.00000000000000E+00  0.00000000000000E+00  0.00000000000000E+00
 Scale of Primitive Cell (acell) [bohr]
  7.57709902476000E+00  7.57709902476000E+00  7.57709902476000E+00
 Real space primitive translations (rprimd) [bohr]
  0.00000000000000E+00  3.78854951238000E+00  3.78854951238000E+00
  3.78854951238000E+00  0.00000000000000E+00  3.78854951238000E+00
  3.78854951238000E+00  3.78854951238000E+00  0.00000000000000E+00
 Unitary Cell Volume (ucvol) [Bohr^3]=  1.08754916141574E+02
 Angles (23,13,12)= [degrees]
  6.00000000000000E+01  6.00000000000000E+01  6.00000000000000E+01
[...]
            acell22    7.5056434151E+00  7.5056434151E+00  7.5056434151E+00 Bohr
            acell23    7.5017559780E+00  7.5017559780E+00  7.5017559780E+00 Bohr
            acell24    7.5040957616E+00  7.5040957616E+00  7.5040957616E+00 Bohr
            acell31    7.5054865249E+00  7.5054865249E+00  7.5054865249E+00 Bohr
            acell32    7.5056434151E+00  7.5056434151E+00  7.5056434151E+00 Bohr
            acell33    7.5017559780E+00  7.5017559780E+00  7.5017559780E+00 Bohr
            acell34    7.5040957616E+00  7.5040957616E+00  7.5040957616E+00 Bohr
              amu      2.69815390E+01
          dilatmx      1.05000000E+00
             ecut      6.00000000E+00 Hartree
           ecutsm      5.00000000E-01 Hartree
           etotal11   -2.0969713557E+00
           etotal12   -2.0975525286E+00
           etotal13   -2.0978233735E+00
           etotal14   -2.0979980154E+00
           etotal21   -2.0969713557E+00
           etotal22   -2.0975525286E+00
           etotal23   -2.0978233735E+00
           etotal24   -2.0979980154E+00
           etotal31   -2.0969713557E+00
           etotal32   -2.0975525286E+00
           etotal33   -2.0978233735E+00
           etotal34   -2.0979980154E+00
            fcart11   -0.0000000000E+00 -0.0000000000E+00 -0.0000000000E+00
            fcart12   -0.0000000000E+00 -0.0000000000E+00 -0.0000000000E+00
            fcart13   -0.0000000000E+00 -0.0000000000E+00 -0.0000000000E+00
            fcart14   -0.0000000000E+00 -0.0000000000E+00 -0.0000000000E+00
            fcart21   -0.0000000000E+00 -0.0000000000E+00 -0.0000000000E+00
            fcart22   -0.0000000000E+00 -0.0000000000E+00 -0.0000000000E+00
            fcart23   -0.0000000000E+00 -0.0000000000E+00 -0.0000000000E+00
            fcart24   -0.0000000000E+00 -0.0000000000E+00 -0.0000000000E+00
            fcart31   -0.0000000000E+00 -0.0000000000E+00 -0.0000000000E+00
            fcart32   -0.0000000000E+00 -0.0000000000E+00 -0.0000000000E+00
            fcart33   -0.0000000000E+00 -0.0000000000E+00 -0.0000000000E+00
            fcart34   -0.0000000000E+00 -0.0000000000E+00 -0.0000000000E+00
-          fftalg         312
           getwfk          -1
           ionmov           2
           jdtset       11   12   13   14   21   22   23   24   31   32
                        33   34
              kpt     -1.25000000E-01  0.00000000E+00  0.00000000E+00
                      -1.25000000E-01  0.00000000E+00  2.50000000E-01
                      -1.25000000E-01  1.25000000E-01  1.25000000E-01
                      -3.75000000E-01  0.00000000E+00  0.00000000E+00
                      -1.25000000E-01  0.00000000E+00  5.00000000E-01
                      -2.50000000E-01  0.00000000E+00  3.75000000E-01
                      -1.25000000E-01  1.25000000E-01  3.75000000E-01
                      -1.25000000E-01  2.50000000E-01  2.50000000E-01
                      -3.75000000E-01  0.00000000E+00  5.00000000E-01
                      -2.50000000E-01  1.25000000E-01  5.00000000E-01
         kptrlatt        4    4   -4     -4    4   -4     -4    4    4
          kptrlen      3.04000000E+01
P           mkmem           5
            natom           1
            nband           3
           ndtset          12
            ngfft          15      15      15
             nkpt          10
            nstep          10
             nsym          48
            ntime          10
           ntypat           1
              occ11    2.000000  0.000000  0.000000
                       2.000000  0.000000  0.000000
                       2.000000  0.000000  0.000000
                       2.000000  2.000002  0.000000
                       2.000000  2.000000  0.000000
                       2.000000  2.000000  0.000000
                       2.000000  0.985601  0.000000
                       2.000000  0.000000  0.000000
                       2.000000  0.028796  0.000000
                       2.000000  2.000000  0.000000
              occ12    2.000000  0.000000  0.000000
                       2.000000  0.000000  0.000000
                       2.000000  0.000000  0.000000
                       2.000000  2.050900  0.000000
                       2.000000  2.000000  0.000000
                       2.000000  2.000001  0.000000
                       2.000000  0.844595  0.000000
                       2.000000  0.000000  0.000000
                       2.000000  0.222602  0.000001
                       2.000000  2.034519  0.001101
              occ13    2.000000  0.000000  0.000000
                       2.000000  0.000477  0.000000
                       2.000000  0.000000  0.000000
                       2.000000  2.139572  0.000000
                       2.000000  2.000002  0.000000
                       2.000000  2.004439  0.000069
                       2.000000  0.687952  0.000000
                       2.000000  0.000000  0.000000
                       2.000000  0.278579  0.000519
                       2.000001  2.141482  0.005259
              occ14    2.000000  0.000000  0.000000
                       2.000000  0.003893  0.000000
                       2.000000  0.000000  0.000000
                       2.000000  2.040464  0.000000
                       2.000000  2.001045  0.000000
                       2.000001  2.047819  0.001830
                       2.000000  0.699213  0.000000
                       2.000000  0.000148  0.000000
                       2.000001  0.370812  0.004002
                       2.000710  2.077451  0.001106
              occ21    2.000000  0.000000  0.000000
                       2.000000  0.000000  0.000000
                       2.000000  0.000000  0.000000
                       2.000000  2.000002  0.000000
                       2.000000  2.000000  0.000000
                       2.000000  2.000000  0.000000
                       2.000000  0.985601  0.000000
                       2.000000  0.000000  0.000000
                       2.000000  0.028796  0.000000
                       2.000000  2.000000  0.000000
              occ22    2.000000  0.000000  0.000000
                       2.000000  0.000000  0.000000
                       2.000000  0.000000  0.000000
                       2.000000  2.050900  0.000000
                       2.000000  2.000000  0.000000
                       2.000000  2.000001  0.000000
                       2.000000  0.844595  0.000000
                       2.000000  0.000000  0.000000
                       2.000000  0.222602  0.000001
                       2.000000  2.034519  0.001101
              occ23    2.000000  0.000000  0.000000
                       2.000000  0.000477  0.000000
                       2.000000  0.000000  0.000000
                       2.000000  2.139572  0.000000
                       2.000000  2.000002  0.000000
                       2.000000  2.004439  0.000069
                       2.000000  0.687952  0.000000
                       2.000000  0.000000  0.000000
                       2.000000  0.278579  0.000519
                       2.000001  2.141482  0.005259
              occ24    2.000000  0.000000  0.000000
                       2.000000  0.003893  0.000000
                       2.000000  0.000000  0.000000
                       2.000000  2.040464  0.000000
                       2.000000  2.001045  0.000000
                       2.000001  2.047819  0.001830
                       2.000000  0.699213  0.000000
                       2.000000  0.000148  0.000000
                       2.000001  0.370812  0.004002
                       2.000710  2.077451  0.001106
              occ31    2.000000  0.000000  0.000000
                       2.000000  0.000000  0.000000
                       2.000000  0.000000  0.000000
                       2.000000  2.000002  0.000000
                       2.000000  2.000000  0.000000
                       2.000000  2.000000  0.000000
                       2.000000  0.985601  0.000000
                       2.000000  0.000000  0.000000
                       2.000000  0.028796  0.000000
                       2.000000  2.000000  0.000000
              occ32    2.000000  0.000000  0.000000
                       2.000000  0.000000  0.000000
                       2.000000  0.000000  0.000000
                       2.000000  2.050900  0.000000
                       2.000000  2.000000  0.000000
                       2.000000  2.000001  0.000000
                       2.000000  0.844595  0.000000
                       2.000000  0.000000  0.000000
                       2.000000  0.222602  0.000001
                       2.000000  2.034519  0.001101
              occ33    2.000000  0.000000  0.000000
                       2.000000  0.000477  0.000000
                       2.000000  0.000000  0.000000
                       2.000000  2.139572  0.000000
                       2.000000  2.000002  0.000000
                       2.000000  2.004439  0.000069
                       2.000000  0.687952  0.000000
                       2.000000  0.000000  0.000000
                       2.000000  0.278579  0.000519
                       2.000001  2.141482  0.005259
              occ34    2.000000  0.000000  0.000000
                       2.000000  0.003893  0.000000
                       2.000000  0.000000  0.000000
                       2.000000  2.040464  0.000000
                       2.000000  2.001045  0.000000
                       2.000001  2.047819  0.001830
                       2.000000  0.699213  0.000000
                       2.000000  0.000148  0.000000
                       2.000001  0.370812  0.004002
                       2.000710  2.077451  0.001106
           occopt           4
          optcell           1
            rprim      0.0000000000E+00  5.0000000000E-01  5.0000000000E-01
                       5.0000000000E-01  0.0000000000E+00  5.0000000000E-01
                       5.0000000000E-01  5.0000000000E-01  0.0000000000E+00
           shiftk      5.00000000E-01  5.00000000E-01  5.00000000E-01
          spgroup         225
           strten11    2.1291401070E-09  2.1291401070E-09  2.1291401069E-09
                       0.0000000000E+00  0.0000000000E+00  0.0000000000E+00
           strten12    1.8662927109E-09  1.8662927110E-09  1.8662927109E-09
                       0.0000000000E+00  0.0000000000E+00  0.0000000000E+00
           strten13    2.5924255648E-09  2.5924255647E-09  2.5924255647E-09
                       0.0000000000E+00  0.0000000000E+00  0.0000000000E+00
           strten14    1.8571531961E-09  1.8571531960E-09  1.8571531960E-09
                       0.0000000000E+00  0.0000000000E+00  0.0000000000E+00
           strten21    2.2032302425E-09  2.2032302423E-09  2.2032302426E-09
                       0.0000000000E+00  0.0000000000E+00  0.0000000000E+00
           strten22    1.8662925153E-09  1.8662925153E-09  1.8662925151E-09
                       0.0000000000E+00  0.0000000000E+00  0.0000000000E+00
           strten23    2.5924255305E-09  2.5924255304E-09  2.5924255304E-09
                       0.0000000000E+00  0.0000000000E+00  0.0000000000E+00
           strten24    1.8571532181E-09  1.8571532183E-09  1.8571532185E-09
                       0.0000000000E+00  0.0000000000E+00  0.0000000000E+00
           strten31    2.2032305536E-09  2.2032305536E-09  2.2032305536E-09
                       0.0000000000E+00  0.0000000000E+00  0.0000000000E+00
           strten32    1.8662924642E-09  1.8662924640E-09  1.8662924640E-09
                       0.0000000000E+00  0.0000000000E+00  0.0000000000E+00
           strten33    2.5924255495E-09  2.5924255495E-09  2.5924255493E-09
                       0.0000000000E+00  0.0000000000E+00  0.0000000000E+00
           strten34    1.8571532099E-09  1.8571532098E-09  1.8571532098E-09
                       0.0000000000E+00  0.0000000000E+00  0.0000000000E+00
           symrel      1  0  0   0  1  0   0  0  1      -1  0  0   0 -1  0   0  0 -1
                       0 -1  1   0 -1  0   1 -1  0       0  1 -1   0  1  0  -1  1  0
                      -1  0  0  -1  0  1  -1  1  0       1  0  0   1  0 -1   1 -1  0
                       0  1 -1   1  0 -1   0  0 -1       0 -1  1  -1  0  1   0  0  1
                      -1  0  0  -1  1  0  -1  0  1       1  0  0   1 -1  0   1  0 -1
                       0 -1  1   1 -1  0   0 -1  0       0  1 -1  -1  1  0   0  1  0
                       1  0  0   0  0  1   0  1  0      -1  0  0   0  0 -1   0 -1  0
                       0  1 -1   0  0 -1   1  0 -1       0 -1  1   0  0  1  -1  0  1
                      -1  0  1  -1  1  0  -1  0  0       1  0 -1   1 -1  0   1  0  0
                       0 -1  0   1 -1  0   0 -1  1       0  1  0  -1  1  0   0  1 -1
                       1  0 -1   0  0 -1   0  1 -1      -1  0  1   0  0  1   0 -1  1
                       0  1  0   0  0  1   1  0  0       0 -1  0   0  0 -1  -1  0  0
                       1  0 -1   0  1 -1   0  0 -1      -1  0  1   0 -1  1   0  0  1
                       0 -1  0   0 -1  1   1 -1  0       0  1  0   0  1 -1  -1  1  0
                      -1  0  1  -1  0  0  -1  1  0       1  0 -1   1  0  0   1 -1  0
                       0  1  0   1  0  0   0  0  1       0 -1  0  -1  0  0   0  0 -1
                       0  0 -1   0  1 -1   1  0 -1       0  0  1   0 -1  1  -1  0  1
                       1 -1  0   0 -1  1   0 -1  0      -1  1  0   0  1 -1   0  1  0
                       0  0  1   1  0  0   0  1  0       0  0 -1  -1  0  0   0 -1  0
                      -1  1  0  -1  0  0  -1  0  1       1 -1  0   1  0  0   1  0 -1
                       0  0  1   0  1  0   1  0  0       0  0 -1   0 -1  0  -1  0  0
                       1 -1  0   0 -1  0   0 -1  1      -1  1  0   0  1  0   0  1 -1
                       0  0 -1   1  0 -1   0  1 -1       0  0  1  -1  0  1   0 -1  1
                      -1  1  0  -1  0  1  -1  0  0       1 -1  0   1  0 -1   1  0  0
           toldfe      1.00000000E-06 Hartree
           tsmear11    1.00000000E-02 Hartree
           tsmear12    2.00000000E-02 Hartree
           tsmear13    3.00000000E-02 Hartree
           tsmear14    4.00000000E-02 Hartree
           tsmear21    1.00000000E-02 Hartree
           tsmear22    2.00000000E-02 Hartree
           tsmear23    3.00000000E-02 Hartree
           tsmear24    4.00000000E-02 Hartree
           tsmear31    1.00000000E-02 Hartree
           tsmear32    2.00000000E-02 Hartree
           tsmear33    3.00000000E-02 Hartree
           tsmear34    4.00000000E-02 Hartree
            typat      1
              wtk        0.03125    0.09375    0.09375    0.03125    0.09375    0.09375
                         0.18750    0.09375    0.09375    0.18750
            znucl       13.00000

================================================================================


- Timing analysis has been suppressed with timopt=0



================================================================================

 Suggested references for the acknowledgment of ABINIT usage.

 The users of ABINIT have little formal obligations with respect to the ABINIT group
 (those specified in the GNU General Public License, http://www.gnu.org/copyleft/gpl.txt).
 However, it is common practice in the scientific literature,
 to acknowledge the efforts of people that have made the research possible.
 In this spirit, please find below suggested citations of work written by ABINIT developers,
 corresponding to implementations inside of ABINIT that you have used in the present run.
 Note also that it will be of great value to readers of publications presenting these results,
 to read papers enabling them to understand the theoretical formalism and details
 of the ABINIT implementation.
 For information on why they are suggested, see also https://docs.abinit.org/theory/acknowledgments.
-
- [1] Recent developments in the ABINIT software package.
- Computer Phys. Comm. 205, 106 (2016).
- X.Gonze, F.Jollet, F.Abreu Araujo, D.Adams, B.Amadon, T.Applencourt,
- C.Audouze, J.-M.Beuken, J.Bieder, A.Bokhanchuk, E.Bousquet, F.Bruneval
- D.Caliste, M.Cote, F.Dahm, F.Da Pieve, M.Delaveau, M.Di Gennaro,
- B.Dorado, C.Espejo, G.Geneste, L.Genovese, A.Gerossier, M.Giantomassi,
- Y.Gillet, D.R.Hamann, L.He, G.Jomard, J.Laflamme Janssen, S.Le Roux,
- A.Levitt, A.Lherbier, F.Liu, I.Lukacevic, A.Martin, C.Martins,
- M.J.T.Oliveira, S.Ponce, Y.Pouillon, T.Rangel, G.-M.Rignanese,
- A.H.Romero, B.Rousseau, O.Rubel, A.A.Shukri, M.Stankovski, M.Torrent,
- M.J.Van Setten, B.Van Troeye, M.J.Verstraete, D.Waroquier, J.Wiktor,
- B.Xu, A.Zhou, J.W.Zwanziger.
- Comment : the fourth generic paper describing the ABINIT project.
- Note that a version of this paper, that is not formatted for Computer Phys. Comm. 
- is available at https://www.abinit.org/about/ABINIT16.pdf .
- The licence allows the authors to put it on the Web.
- DOI and bibtex : see https://docs.abinit.org/theory/bibliography/#gonze2016
-
- [2] Ab initio pseudopotentials for electronic structure calculations of poly-atomic systems, 
- using density-functional theory.
- M. Fuchs, M. Scheffler, Comput. Phys. Commun. 119, 67 (1999).
- Comment : Some pseudopotential generated using the FHI code were used.
- DOI and bibtex : see https://docs.abinit.org/theory/bibliography/#fuchs1999
-
- [3] ABINIT : First-principles approach of materials and nanosystem properties.
- Computer Phys. Comm. 180, 2582-2615 (2009).
- X. Gonze, B. Amadon, P.-M. Anglade, J.-M. Beuken, F. Bottin, P. Boulanger, F. Bruneval,
- D. Caliste, R. Caracas, M. Cote, T. Deutsch, L. Genovese, Ph. Ghosez, M. Giantomassi
- S. Goedecker, D.R. Hamann, P. Hermet, F. Jollet, G. Jomard, S. Leroux, M. Mancini, S. Mazevet,
- M.J.T. Oliveira, G. Onida, Y. Pouillon, T. Rangel, G.-M. Rignanese, D. Sangalli, R. Shaltaf,
- M. Torrent, M.J. Verstraete, G. Zerah, J.W. Zwanziger
- Comment : the third generic paper describing the ABINIT project.
- Note that a version of this paper, that is not formatted for Computer Phys. Comm. 
- is available at https://www.abinit.org/about/ABINIT_CPC_v10.pdf .
- The licence allows the authors to put it on the Web.
- DOI and bibtex : see https://docs.abinit.org/theory/bibliography/#gonze2009
-
- [4] A brief introduction to the ABINIT software package.
- Z. Kristallogr. 220, 558-562 (2005).
- X. Gonze, G.-M. Rignanese, M. Verstraete, J.-M. Beuken, Y. Pouillon, R. Caracas, F. Jollet,
- M. Torrent, G. Zerah, M. Mikami, Ph. Ghosez, M. Veithen, J.-Y. Raty, V. Olevano, F. Bruneval,
- L. Reining, R. Godby, G. Onida, D.R. Hamann, and D.C. Allan.
- Comment : the second generic paper describing the ABINIT project. Note that this paper
- should be cited especially if you are using the GW part of ABINIT, as several authors
- of this part are not in the list of authors of the first or third paper.
- The .pdf of the latter paper is available at https://www.abinit.org/about/zfk_0505-06_558-562.pdf.
- Note that it should not redistributed (Copyright by Oldenburg Wissenshaftverlag,
- the licence allows the authors to put it on the Web).
- DOI and bibtex : see https://docs.abinit.org/theory/bibliography/#gonze2005
-
- And optionally:
-
- [5] First-principles computation of material properties : the ABINIT software project. 
- X. Gonze, J.-M. Beuken, R. Caracas, F. Detraux, M. Fuchs, G.-M. Rignanese, L. Sindic,
- M. Verstraete, G. Zerah, F. Jollet, M. Torrent, A. Roy, M. Mikami, Ph. Ghosez, J.-Y. Raty, D.C. Allan.
- Computational Materials Science 25, 478-492 (2002). http://dx.doi.org/10.1016/S0927-0256(02)00325-7
- Comment : the original paper describing the ABINIT project.
- DOI and bibtex : see https://docs.abinit.org/theory/bibliography/#gonze2002
-
- Proc.   0 individual time (sec): cpu=         10.3  wall=          7.3

================================================================================

 Calculation completed.
.Delivered   0 WARNINGs and  72 COMMENTs to log file.
+Overall time at end (sec) : cpu=         21.3  wall=         14.6
