  ABINIT 8.11.13
  
  Give name for formatted input file: 
opt.in
  Give name for formatted output file:
opt.out
  Give root name for generic input files:
opti
  Give root name for generic output files:
opto
  Give root name for generic temporary files:
opt

.Version 8.11.13 of ABINIT 
.(MPI version, prepared for a x86_64_linux_intel14.0 computer) 

.Copyright (C) 1998-2019 ABINIT group . 
 ABINIT comes with ABSOLUTELY NO WARRANTY.
 It is free software, and you are welcome to redistribute it
 under certain conditions (GNU General Public License,
 see ~abinit/COPYING or http://www.gnu.org/copyleft/gpl.txt).

 ABINIT is a project of the Universite Catholique de Louvain,
 Corning Inc. and other collaborators, see ~abinit/doc/developers/contributors.txt .
 Please read https://docs.abinit.org/theory/acknowledgments for suggested
 acknowledgments of the ABINIT effort.
 For more information, see https://www.abinit.org .

.Starting date : Fri 10 Jan 2020.
- ( at 11h50 )
  
 
 ++++++++++++++++++++++++++++++++++++++++++++++++++++++++++++++++++++++++++++++
 
 === Build Information === 
  Version       : 8.11.13
  Build target  : x86_64_linux_intel14.0
  Build date    : 20191206
 
 === Compiler Suite === 
  C compiler       : intel14.0
  C++ compiler     : gnu14.0
  Fortran compiler : intel14.0
  CFLAGS           :  -g -O2
  CXXFLAGS         :  -g -O2 -mtune=native -march=native
  FCFLAGS          :  -g -extend-source -nofpscomp
  FC_LDFLAGS       :    -static-intel -static-libgcc
 
 === Optimizations === 
  Debug level        : basic
  Optimization level : standard
  Architecture       : intel_xeon
 
 === Multicore === 
  Parallel build : yes
  Parallel I/O   : yes
  openMP support : no
  GPU support    : no
 
 === Connectors / Fallbacks === 
  Connectors on : yes
  Fallbacks on  : yes
  DFT flavor    : libxc-fallback
  FFT flavor    : fftw3
  LINALG flavor : mkl
  TIMER flavor  : abinit
  TRIO flavor   : netcdf
 
 === Experimental features === 
  Exports             : no
  GW double-precision : yes
 
 ++++++++++++++++++++++++++++++++++++++++++++++++++++++++++++++++++++++++++++++
 

 ++++++++++++++++++++++++++++++++++++++++++++++++++++++++++++++++++++++++++++++
 Default optimizations:
   -O3


 Optimizations for 43_ptgroups:
   -O0


 ++++++++++++++++++++++++++++++++++++++++++++++++++++++++++++++++++++++++++++++


 ++++++++++++++++++++++++++++++++++++++++++++++++++++++++++++++++++++++++++++++
 CPP options activated during the build:

                  CC_INTEL                   CXX_GNU                  FC_INTEL
 
 HAVE_FC_ALLOCATABLE_DT...             HAVE_FC_ASYNC  HAVE_FC_COMMAND_ARGUMENT
 
        HAVE_FC_CONTIGUOUS           HAVE_FC_CPUTIME             HAVE_FC_ETIME
 
              HAVE_FC_EXIT             HAVE_FC_FLUSH             HAVE_FC_GAMMA
 
            HAVE_FC_GETENV            HAVE_FC_GETPID   HAVE_FC_IEEE_ARITHMETIC
 
   HAVE_FC_IEEE_EXCEPTIONS             HAVE_FC_IOMSG     HAVE_FC_ISO_C_BINDING
 
  HAVE_FC_ISO_FORTRAN_2008        HAVE_FC_LONG_LINES        HAVE_FC_MOVE_ALLOC
 
  HAVE_FC_ON_THE_FLY_SHAPE           HAVE_FC_PRIVATE         HAVE_FC_PROTECTED
 
           HAVE_FC_SHIFTLR         HAVE_FC_STREAM_IO            HAVE_FC_SYSTEM
 
                  HAVE_FFT            HAVE_FFT_FFTW3              HAVE_FFT_MPI
 
           HAVE_FFT_SERIAL               HAVE_GW_DPC        HAVE_LIBPAW_ABINIT
 
      HAVE_LIBTETRA_ABINIT                HAVE_LIBXC               HAVE_LINALG
 
         HAVE_LINALG_AXPBY        HAVE_LINALG_GEMM3M  HAVE_LINALG_MKL_IMATCOPY
 
   HAVE_LINALG_MKL_OMATADD  HAVE_LINALG_MKL_OMATCOPY   HAVE_LINALG_MKL_THREADS
 
        HAVE_LINALG_SERIAL                  HAVE_MPI                 HAVE_MPI2
 
       HAVE_MPI_IALLREDUCE        HAVE_MPI_IALLTOALL       HAVE_MPI_IALLTOALLV
 
           HAVE_MPI_IBCAST         HAVE_MPI_IGATHERV        HAVE_MPI_INTEGER16
 
               HAVE_MPI_IO HAVE_MPI_TYPE_CREATE_S...               HAVE_NETCDF
 
           HAVE_NETCDF_MPI                HAVE_NUMPY             HAVE_OS_LINUX
 
         HAVE_TIMER_ABINIT                  HAVE_XML              USE_MACROAVE
 
 ++++++++++++++++++++++++++++++++++++++++++++++++++++++++++++++++++++++++++++++

- input  file    -> opt.in
- output file    -> opt.out
- root for input  files -> opti
- root for output files -> opto
 
Netcdf library supports MPI-IO
-instrng: 56 lines of input have been read from file opt.in
 

 Please give name of formatted atomic psp file
 For atom type 1, psp file is /CECI/home/ucl/naps/jovbever/.PsP/Si/Si.psp8
  read the values zionpsp=  4.0 , pspcod=   8 , lmax=   2
 
 inpspheads: deduce mpsang = 3, n1xccc = 2501.

======================================================= 
invars1m : enter jdtset= 0
 
 symlatt: the Bravais lattice is cF (face-centered cubic)
  xred   is defined in input file
 ingeo: takes atomic coordinates from input array xred
 
 symlatt: the Bravais lattice is cF (face-centered cubic)
 
 symlatt: the Bravais lattice is cF (face-centered cubic)
 symspgr: spgroup= 227  Fd -3 m   (=Oh^7)
 symspgr: optical characteristics = isotropic
 
--- !WARNING
src_file: m_mpinfo.F90
src_line: 2292
message: |
    nkpt*nsppol (28) is not a multiple of nproc_kpt (6)
    The k-point parallelisation is inefficient. (Ignore this warning if this is not a GS run)
...
 
 For input ecut=  4.410000E+00 best grid ngfft=      15      15      15
       max ecut=  4.573038E+00
 
 ==== FFT mesh ====
  FFT mesh divisions ........................    15   15   15
  Augmented FFT divisions ...................    15   15   15
  FFT algorithm .............................   312
  FFT cache size ............................    16
 getmpw: optimal value of mpw= 130
 
 Symmetries : space group Fd -3 m (#227); Bravais cF (face-center cubic)
 
 getdim_nloc : deduce lmnmax  =  18, lnmax  =   6,
                      lmnmaxso=  18, lnmaxso=   6.
memory: analysis of memory needs
================================================================================
 Values of the parameters that define the memory need of the present run
     intxc =       0    ionmov =       2      iscf =       7    lmnmax =       6
     lnmax =       6     mgfft =      15  mpssoang =       3    mqgrid =    3001
     natom =       2  nloc_mem =       1    nspden =       1   nspinor =       1
    nsppol =       1      nsym =      48    n1xccc =    2501    ntypat =       1
    occopt =       1   xclevel =       2
-    mband =           6        mffmem =           1         mkmem =           5
       mpw =         130          nfft =        3375          nkpt =          28
================================================================================
P This job should need less than                       1.875 Mbytes of memory.
  Rough estimation (10% accuracy) of disk space for files :
_ WF disk file :      0.335 Mbytes ; DEN or POT disk file :      0.028 Mbytes.
================================================================================
 
 Biggest array : f_fftgr(disk), with      0.4140 MBytes.
 memana : allocated an array of      0.414 Mbytes, for testing purposes.
 memana: allocated       1.875Mbytes, for testing purposes. 
 The job will continue.
--------------------------------------------------------------------------------
------------- Echo of variables that govern the present computation ------------
--------------------------------------------------------------------------------
-
- outvars: echo of selected default values                                      
-   iomode0 =  0 , fftalg0 =312 , wfoptalg0 =  0
-
- outvars: echo of global parameters not present in the input file              
-  max_nthreads =    0
-
 -outvars: echo values of preprocessed input variables --------
 
 These variables are accessible in NetCDF format (opto_OUT.nc)

            acell      1.0335941857E+01  1.0335941857E+01  1.0335941857E+01 Bohr
              amu      2.80855000E+01
          dilatmx      1.05000000E+00
             ecut      4.00000000E+00 Hartree
           ecutsm      5.00000000E-01 Hartree
-          fftalg         312
           ionmov           2
              ixc          11
              kpt     -8.33333333E-02 -1.66666667E-01  0.00000000E+00
                      -8.33333333E-02 -3.33333333E-01  0.00000000E+00
                      -1.66666667E-01 -2.50000000E-01  0.00000000E+00
                      -8.33333333E-02 -2.50000000E-01  8.33333333E-02
                      -8.33333333E-02  5.00000000E-01  0.00000000E+00
                      -1.66666667E-01 -4.16666667E-01  0.00000000E+00
                      -8.33333333E-02 -4.16666667E-01  8.33333333E-02
                      -2.50000000E-01 -3.33333333E-01  0.00000000E+00
                      -1.66666667E-01 -3.33333333E-01  8.33333333E-02
                      -8.33333333E-02 -3.33333333E-01  1.66666667E-01
                      -8.33333333E-02  3.33333333E-01  0.00000000E+00
                      -1.66666667E-01  4.16666667E-01  0.00000000E+00
                      -2.50000000E-01  5.00000000E-01  0.00000000E+00
                      -1.66666667E-01  5.00000000E-01  8.33333333E-02
                      -3.33333333E-01 -4.16666667E-01  0.00000000E+00
                      -2.50000000E-01 -4.16666667E-01  8.33333333E-02
                      -1.66666667E-01 -4.16666667E-01  1.66666667E-01
                      -8.33333333E-02 -4.16666667E-01  2.50000000E-01
                      -8.33333333E-02  1.66666667E-01  0.00000000E+00
                      -1.66666667E-01  2.50000000E-01  0.00000000E+00
                      -2.50000000E-01  3.33333333E-01  0.00000000E+00
                      -3.33333333E-01  4.16666667E-01  0.00000000E+00
                      -4.16666667E-01  5.00000000E-01  0.00000000E+00
                      -3.33333333E-01  5.00000000E-01  8.33333333E-02
                      -2.50000000E-01  5.00000000E-01  1.66666667E-01
                      -8.33333333E-02  0.00000000E+00  0.00000000E+00
                      -2.50000000E-01  0.00000000E+00  0.00000000E+00
                      -4.16666667E-01  0.00000000E+00  0.00000000E+00
         kptrlatt        6   -6    6     -6    6    6     -6   -6    6
          kptrlen      6.20156511E+01
P           mkmem           5
            natom           2
            nband           6
            ngfft          15      15      15
             nkpt          28
             nsym          48
            ntime          15
           ntypat           1
              occ      2.000000  2.000000  2.000000  2.000000  0.000000  0.000000
          optcell           2
            rprim      5.0000000000E-01  5.0000000000E-01  0.0000000000E+00
                       0.0000000000E+00  5.0000000000E-01  5.0000000000E-01
                       5.0000000000E-01  0.0000000000E+00  5.0000000000E-01
           shiftk      5.00000000E-01  5.00000000E-01  5.00000000E-01
          spgroup         227
           symrel      1  0  0   0  1  0   0  0  1      -1  0  0   0 -1  0   0  0 -1
                       0 -1  1   0 -1  0   1 -1  0       0  1 -1   0  1  0  -1  1  0
                      -1  0  0  -1  0  1  -1  1  0       1  0  0   1  0 -1   1 -1  0
                       0  1 -1   1  0 -1   0  0 -1       0 -1  1  -1  0  1   0  0  1
                      -1  0  0  -1  1  0  -1  0  1       1  0  0   1 -1  0   1  0 -1
                       0 -1  1   1 -1  0   0 -1  0       0  1 -1  -1  1  0   0  1  0
                       1  0  0   0  0  1   0  1  0      -1  0  0   0  0 -1   0 -1  0
                       0  1 -1   0  0 -1   1  0 -1       0 -1  1   0  0  1  -1  0  1
                      -1  0  1  -1  1  0  -1  0  0       1  0 -1   1 -1  0   1  0  0
                       0 -1  0   1 -1  0   0 -1  1       0  1  0  -1  1  0   0  1 -1
                       1  0 -1   0  0 -1   0  1 -1      -1  0  1   0  0  1   0 -1  1
                       0  1  0   0  0  1   1  0  0       0 -1  0   0  0 -1  -1  0  0
                       1  0 -1   0  1 -1   0  0 -1      -1  0  1   0 -1  1   0  0  1
                       0 -1  0   0 -1  1   1 -1  0       0  1  0   0  1 -1  -1  1  0
                      -1  0  1  -1  0  0  -1  1  0       1  0 -1   1  0  0   1 -1  0
                       0  1  0   1  0  0   0  0  1       0 -1  0  -1  0  0   0  0 -1
                       0  0 -1   0  1 -1   1  0 -1       0  0  1   0 -1  1  -1  0  1
                       1 -1  0   0 -1  1   0 -1  0      -1  1  0   0  1 -1   0  1  0
                       0  0  1   1  0  0   0  1  0       0  0 -1  -1  0  0   0 -1  0
                      -1  1  0  -1  0  0  -1  0  1       1 -1  0   1  0  0   1  0 -1
                       0  0  1   0  1  0   1  0  0       0  0 -1   0 -1  0  -1  0  0
                       1 -1  0   0 -1  0   0 -1  1      -1  1  0   0  1  0   0  1 -1
                       0  0 -1   1  0 -1   0  1 -1       0  0  1  -1  0  1   0 -1  1
                      -1  1  0  -1  0  1  -1  0  0       1 -1  0   1  0 -1   1  0  0
            tnons      0.0000000  0.0000000  0.0000000     0.2500000  0.2500000  0.2500000
                       0.0000000  0.0000000  0.0000000     0.2500000  0.2500000  0.2500000
                       0.0000000  0.0000000  0.0000000     0.2500000  0.2500000  0.2500000
                       0.0000000  0.0000000  0.0000000     0.2500000  0.2500000  0.2500000
                       0.0000000  0.0000000  0.0000000     0.2500000  0.2500000  0.2500000
                       0.0000000  0.0000000  0.0000000     0.2500000  0.2500000  0.2500000
                       0.0000000  0.0000000  0.0000000     0.2500000  0.2500000  0.2500000
                       0.0000000  0.0000000  0.0000000     0.2500000  0.2500000  0.2500000
                       0.0000000  0.0000000  0.0000000     0.2500000  0.2500000  0.2500000
                       0.0000000  0.0000000  0.0000000     0.2500000  0.2500000  0.2500000
                       0.0000000  0.0000000  0.0000000     0.2500000  0.2500000  0.2500000
                       0.0000000  0.0000000  0.0000000     0.2500000  0.2500000  0.2500000
                       0.0000000  0.0000000  0.0000000     0.2500000  0.2500000  0.2500000
                       0.0000000  0.0000000  0.0000000     0.2500000  0.2500000  0.2500000
                       0.0000000  0.0000000  0.0000000     0.2500000  0.2500000  0.2500000
                       0.0000000  0.0000000  0.0000000     0.2500000  0.2500000  0.2500000
                       0.0000000  0.0000000  0.0000000     0.2500000  0.2500000  0.2500000
                       0.0000000  0.0000000  0.0000000     0.2500000  0.2500000  0.2500000
                       0.0000000  0.0000000  0.0000000     0.2500000  0.2500000  0.2500000
                       0.0000000  0.0000000  0.0000000     0.2500000  0.2500000  0.2500000
                       0.0000000  0.0000000  0.0000000     0.2500000  0.2500000  0.2500000
                       0.0000000  0.0000000  0.0000000     0.2500000  0.2500000  0.2500000
                       0.0000000  0.0000000  0.0000000     0.2500000  0.2500000  0.2500000
                       0.0000000  0.0000000  0.0000000     0.2500000  0.2500000  0.2500000
           tolmxf      1.00000000E-08
           tolvrs      1.00000000E-10
            typat      1  1
              wtk        0.02778    0.02778    0.02778    0.05556    0.02778    0.02778
                         0.05556    0.02778    0.05556    0.05556    0.02778    0.02778
                         0.02778    0.05556    0.02778    0.05556    0.05556    0.05556
                         0.02778    0.02778    0.02778    0.02778    0.02778    0.05556
                         0.05556    0.00926    0.00926    0.00926
           xangst      0.0000000000E+00  0.0000000000E+00  0.0000000000E+00
                       1.3673862150E+00  1.3673862150E+00  1.3673862150E+00
            xcart      0.0000000000E+00  0.0000000000E+00  0.0000000000E+00
                       2.5839854642E+00  2.5839854642E+00  2.5839854642E+00
             xred      0.0000000000E+00  0.0000000000E+00  0.0000000000E+00
                       2.5000000000E-01  2.5000000000E-01  2.5000000000E-01
            znucl       14.00000
 
================================================================================
 
 chkinp: Checking input parameters for consistency.
 DATA TYPE INFORMATION: 
 REAL:      Data type name: REAL(DP) 
            Kind value:      8
            Precision:      15
            Smallest nonnegligible quantity relative to 1:  0.22204460E-15
            Smallest positive number:                       0.22250739-307
            Largest representable number:                   0.17976931+309
 INTEGER:   Data type name: INTEGER(default) 
            Kind value: 4
            Bit size:   32
            Largest representable number: 2147483647
 LOGICAL:   Data type name: LOGICAL 
            Kind value: 4
 CHARACTER: Data type name: CHARACTER             Kind value: 1

  ==== OpenMP parallelism is OFF ====
 
  ==== Using MPI-2 specifications ==== 
  MPI-IO support is ON
  xmpi_tag_ub ................   1073741824
  xmpi_bsize_ch ..............            1
  xmpi_bsize_int .............            4
  xmpi_bsize_sp ..............            4
  xmpi_bsize_dp ..............            8
  xmpi_bsize_spc .............            8
  xmpi_bsize_dpc .............           16
  xmpio_bsize_frm ............            4
  xmpi_address_kind ..........            8
  xmpi_offset_kind ...........            8
  MPI_WTICK ..................   1.000000000000000E-006
 
================================================================================
== DATASET  1 ==================================================================
-   nproc =    6
 
 
--- !COMMENT
src_file: m_xgScalapack.F90
src_line: 237
message: |
    xgScalapack in auto mode
...
 
 
 getdim_nloc : deduce lmnmax  =  18, lnmax  =   6,
                      lmnmaxso=  18, lnmaxso=   6.
 Exchange-correlation functional for the present dataset will be:
  GGA: Perdew-Burke-Ernzerhof functional - ixc=11
 Citation for XC functional:
  J.P.Perdew, K.Burke, M.Ernzerhof, PRL 77, 3865 (1996)
 
 Unit cell volume ucvol=  2.7605154E+02 bohr^3
 Angles (23,13,12)=  6.00000000E+01  6.00000000E+01  6.00000000E+01 degrees
 
 getcut: wavevector=  0.0000  0.0000  0.0000  ngfft=  15  15  15
         ecut(hartree)=      4.410   => boxcut(ratio)=   2.03663
- pspini: atom type   1  psp file is /CECI/home/ucl/naps/jovbever/.PsP/Si/Si.psp8
- pspatm: opening atomic psp file    /CECI/home/ucl/naps/jovbever/.PsP/Si/Si.psp8
- Si    ONCVPSP-3.2.3.1  r_core=   1.60303   1.72197   1.91712
- 14.00000   4.00000    170510                znucl, zion, pspdat
    8   11    2    4       600   0.00000      pspcod,pspxc,lmax,lloc,mmax,r2well
    5.99000000000000    4.00000000000000    0.00000000000000   rchrg,fchrg,qchrg
     nproj     2     2     2
     extension_switch     1
  valence charge integrates to:    3.95328304696650     
  pspatm : epsatm=    9.34321699
         --- l  ekb(1:nproj) -->
             0    5.168965    0.829883
             1    2.571282    0.578307
             2   -2.427311   -0.488097
 pspatm: atomic psp has been read  and splines computed
 
   1.49491472E+02                                ecore*ucvol(ha*bohr**3)
 ==== Info on pseudopotentials ====
  Norm-conserving pseudopotentials
  Number of pseudopotentials ..    1
  Number of types of atoms   ..    1
  Scalar calculation (no spin-orbit term)
  Nonlocal part applied using Legendre polynomials
  Max number of non-local projectors over l and type   2
  Highest angular momentum +1 .......   3
  Max number of (l,n)   components ..   6
  Max number of (l,m,n) components ..   6
 
 Pseudo-Core Charge Info: 
   Number of radial points for pseudo-core charge .. 2501
   XC core-correction treatment (optnlxccc) ........    1
   Radius for pseudo-core charge for each type ..... 
 
  - Atom type    1 has pseudo-core radius ..  5.9900
 
 Info on the Q-grid used for form factors in spline form: 
   Number of q-points for radial functions ffspl ..   3001
   Number of q-points for vlspl ...................   3001
   vloc is computed in Reciprocal Space
   model core charge treated in real-space
 
  XC functional for type 1 is 11
  Pseudo valence available: yes
 
 wfconv:     6 bands initialized randomly with npw=   123, for ikpt=     1
 wfconv:     6 bands initialized randomly with npw=   127, for ikpt=     2
 wfconv:     6 bands initialized randomly with npw=   130, for ikpt=     3
 wfconv:     6 bands initialized randomly with npw=   127, for ikpt=     4
 wfconv:     6 bands initialized randomly with npw=   123, for ikpt=     5
_setup2: Arith. and geom. avg. npw (full set) are     122.241     122.191
 initro: for itypat=  1, take pseudo charge density from pp file
 
================================================================================
 
=== [ionmov= 2] Broyden-Fletcher-Goldfard-Shanno method (forces)            
================================================================================
 
--- Iteration: ( 1/15) Internal Cycle: (1/1)
--------------------------------------------------------------------------------
 
 Cartesian coordinates (xcart) [bohr]
  0.00000000000000E+00  0.00000000000000E+00  0.00000000000000E+00
  2.58398546423309E+00  2.58398546423309E+00  2.58398546423309E+00
 Reduced coordinates (xred)
  0.00000000000000E+00  0.00000000000000E+00  0.00000000000000E+00
  2.50000000000000E-01  2.50000000000000E-01  2.50000000000000E-01
 Scale of Primitive Cell (acell) [bohr]
  1.03359418569323E+01  1.03359418569323E+01  1.03359418569323E+01
 Real space primitive translations (rprimd) [bohr]
  5.16797092846617E+00  5.16797092846617E+00  0.00000000000000E+00
  0.00000000000000E+00  5.16797092846617E+00  5.16797092846617E+00
  5.16797092846617E+00  0.00000000000000E+00  5.16797092846617E+00
 Unitary Cell Volume (ucvol) [Bohr^3]=  2.76051544595982E+02
 Angles (23,13,12)= [degrees]
  6.00000000000000E+01  6.00000000000000E+01  6.00000000000000E+01
 Lengths [Bohr]
  7.30861457698674E+00  7.30861457698674E+00  7.30861457698674E+00
 
---SELF-CONSISTENT-FIELD CONVERGENCE--------------------------------------------
 
 getcut: wavevector=  0.0000  0.0000  0.0000  ngfft=  15  15  15
         ecut(hartree)=      4.000   => boxcut(ratio)=   2.13847
 
 ITER STEP NUMBER     1
 vtorho: nnsclo_now=2, note that nnsclo,dbl_nnsclo,istep=0 0 1
 Total charge density [el/Bohr^3]
      Maximum=    9.1487E-02  at reduced coord.    0.1333    0.1333    0.6000
      Minimum=    3.1579E-03  at reduced coord.    0.7333    0.7333    0.7333
   Integrated=    8.0000E+00
 ETOT  1  -8.3763812894949    -8.376E+00 7.660E-03 4.775E-01
 scprqt: <Vxc>= -3.3757923E-01 hartree
 
 Simple mixing update:
  residual square of the potential:   0.327820441130792
 scfcv_core: previous iteration took  0.22 [s]
 
 ITER STEP NUMBER     2
 vtorho: nnsclo_now=2, note that nnsclo,dbl_nnsclo,istep=0 0 2
 Total charge density [el/Bohr^3]
      Maximum=    8.8962E-02  at reduced coord.    0.1333    0.1333    0.6000
      Minimum=    3.2746E-03  at reduced coord.    0.7333    0.7333    0.7333
   Integrated=    8.0000E+00
 ETOT  2  -8.3774002404934    -1.019E-03 4.872E-04 4.638E-03
 scprqt: <Vxc>= -3.3872100E-01 hartree
 
 Pulay update with  1 previous iterations:
 mixing of old trial potential: alpha(m:m-4)=   1.08     -0.796E-01
 scfcv_core: previous iteration took  0.16 [s]
 
 ITER STEP NUMBER     3
 vtorho: nnsclo_now=1, note that nnsclo,dbl_nnsclo,istep=0 0 3
 Total charge density [el/Bohr^3]
      Maximum=    8.8683E-02  at reduced coord.    0.1333    0.1333    0.6000
      Minimum=    3.2814E-03  at reduced coord.    0.7333    0.7333    0.7333
   Integrated=    8.0000E+00
 ETOT  3  -8.3774068129437    -6.572E-06 5.574E-04 7.971E-05
 scprqt: <Vxc>= -3.3883640E-01 hartree
 
 Pulay update with  2 previous iterations:
 mixing of old trial potential: alpha(m:m-4)=   1.16     -0.172      0.137E-01
 scfcv_core: previous iteration took  0.08 [s]
 
 ITER STEP NUMBER     4
 vtorho: nnsclo_now=1, note that nnsclo,dbl_nnsclo,istep=0 0 4
 Total charge density [el/Bohr^3]
      Maximum=    8.8677E-02  at reduced coord.    0.1333    0.1333    0.6000
      Minimum=    3.2790E-03  at reduced coord.    0.7333    0.7333    0.7333
   Integrated=    8.0000E+00
 ETOT  4  -8.3774068441721    -3.123E-08 2.569E-04 3.938E-06
 scprqt: <Vxc>= -3.3883244E-01 hartree
 
 Pulay update with  3 previous iterations:
 mixing of old trial potential: alpha(m:m-4)=   1.28     -0.313      0.394E-01 -0.283E-02
 scfcv_core: previous iteration took  0.08 [s]
 
 ITER STEP NUMBER     5
 vtorho: nnsclo_now=1, note that nnsclo,dbl_nnsclo,istep=0 0 5
 Total charge density [el/Bohr^3]
      Maximum=    8.8679E-02  at reduced coord.    0.1333    0.1333    0.6000
      Minimum=    3.2781E-03  at reduced coord.    0.7333    0.7333    0.7333
   Integrated=    8.0000E+00
 ETOT  5  -8.3774068474935    -3.321E-09 9.535E-05 1.628E-07
 scprqt: <Vxc>= -3.3882903E-01 hartree
 
 Pulay update with  4 previous iterations:
 mixing of old trial potential: alpha(m:m-4)=   1.38     -0.432      0.631E-01 -0.760E-02  0.508E-03
 scfcv_core: previous iteration took  0.08 [s]
 
 ITER STEP NUMBER     6
 vtorho: nnsclo_now=1, note that nnsclo,dbl_nnsclo,istep=0 0 6
 Total charge density [el/Bohr^3]
      Maximum=    8.8680E-02  at reduced coord.    0.1333    0.1333    0.6000
      Minimum=    3.2778E-03  at reduced coord.    0.7333    0.7333    0.7333
   Integrated=    8.0000E+00
 ETOT  6  -8.3774068476427    -1.492E-10 3.625E-05 2.785E-10
 scprqt: <Vxc>= -3.3882815E-01 hartree
 
 Pulay update with  5 previous iterations:
 mixing of old trial potential: alpha(m:m-4)=   1.17     -0.227      0.636E-01 -0.840E-02  0.948E-03
 scfcv_core: previous iteration took  0.13 [s]
 
 ITER STEP NUMBER     7
 vtorho: nnsclo_now=1, note that nnsclo,dbl_nnsclo,istep=0 0 7
 Total charge density [el/Bohr^3]
      Maximum=    8.8680E-02  at reduced coord.    0.1333    0.1333    0.6000
      Minimum=    3.2778E-03  at reduced coord.    0.7333    0.7333    0.7333
   Integrated=    8.0000E+00
 ETOT  7  -8.3774068476430    -2.487E-13 1.080E-05 1.094E-12
 scprqt: <Vxc>= -3.3882813E-01 hartree
 
 At SCF step    7       vres2   =  1.09E-12 < tolvrs=  1.00E-10 =>converged.
 
 Cartesian components of stress tensor (hartree/bohr^3)
  sigma(1 1)=  1.62051707E-05  sigma(3 2)=  0.00000000E+00
  sigma(2 2)=  1.62051707E-05  sigma(3 1)=  0.00000000E+00
  sigma(3 3)=  1.62051707E-05  sigma(2 1)=  0.00000000E+00
 
 
   fftdatar_write: About to write data to: opto_TIM1_DEN with iomode: IO_MODE_FORTRAN
 IO operation completed. cpu:  0.00 [s] , wall:  0.00 [s]
- Creating HDf5 file with MPI-IO support: opto_GSR.nc
 Write iteration in HIST netCDF file
 
---OUTPUT-----------------------------------------------------------------------
 
 Cartesian coordinates (xcart) [bohr]
  0.00000000000000E+00  0.00000000000000E+00  0.00000000000000E+00
  2.58398546423309E+00  2.58398546423309E+00  2.58398546423309E+00
 Reduced coordinates (xred)
  0.00000000000000E+00  0.00000000000000E+00  0.00000000000000E+00
  2.50000000000000E-01  2.50000000000000E-01  2.50000000000000E-01
 Cartesian forces (fcart) [Ha/bohr]; max,rms= 6.66913E-27 4.71579E-27 (free atoms)
 -3.33456392590481E-27  3.33456392590481E-27  6.66912785180961E-27
  3.33456392590481E-27 -3.33456392590481E-27 -6.66912785180961E-27
 Reduced forces (fred)
  0.00000000000000E+00 -5.16987882845642E-26 -1.72329294281881E-26
  0.00000000000000E+00  5.16987882845642E-26  1.72329294281881E-26
 Scale of Primitive Cell (acell) [bohr]
  1.03359418569323E+01  1.03359418569323E+01  1.03359418569323E+01
 Real space primitive translations (rprimd) [bohr]
  5.16797092846617E+00  5.16797092846617E+00  0.00000000000000E+00
  0.00000000000000E+00  5.16797092846617E+00  5.16797092846617E+00
  5.16797092846617E+00  0.00000000000000E+00  5.16797092846617E+00
 Unitary Cell Volume (ucvol) [Bohr^3]=  2.76051544595982E+02
 Angles (23,13,12)= [degrees]
  6.00000000000000E+01  6.00000000000000E+01  6.00000000000000E+01
 Lengths [Bohr]
  7.30861457698674E+00  7.30861457698674E+00  7.30861457698674E+00
 Stress tensor in cartesian coordinates (strten) [Ha/bohr^3]
  1.62051706643022E-05  0.00000000000000E+00  0.00000000000000E+00
  0.00000000000000E+00  1.62051706643035E-05  0.00000000000000E+00
  0.00000000000000E+00  0.00000000000000E+00  1.62051706643030E-05
 Total energy (etotal) [Ha]= -8.37740684764296E+00
 fconv : at Broyd/MD step   1, gradients have not converged yet. 
  max grad (force/stress) = 1.6205E-03 > tolmxf= 1.0000E-08 ha/bohr (free atoms)
 
Inverse hessian has been initialized.
 EXIT:           1           1
 mover: previous time step took  1.16 [s]
 
--- Iteration: ( 2/15) Internal Cycle: (1/1)
--------------------------------------------------------------------------------
 
 Cartesian coordinates (xcart) [bohr]
 -3.33294281057949E-27  3.33294281057949E-27  6.66588562115899E-27
  2.58272924646983E+00  2.58272924646983E+00  2.58272924646983E+00
 Reduced coordinates (xred)
 -6.45236587446224E-28  1.29047317489245E-27  0.00000000000000E+00
  2.50000000000000E-01  2.50000000000000E-01  2.50000000000000E-01
 Scale of Primitive Cell (acell) [bohr]
  7.30506145659054E+00  7.30506145659054E+00  7.30506145659054E+00
 Real space primitive translations (rprimd) [bohr]
  5.16545849293965E+00  5.16545849293965E+00  0.00000000000000E+00
  0.00000000000000E+00  5.16545849293965E+00  5.16545849293965E+00
  5.16545849293965E+00  0.00000000000000E+00  5.16545849293965E+00
 Unitary Cell Volume (ucvol) [Bohr^3]=  2.75649128680652E+02
 Angles (23,13,12)= [degrees]
  6.00000000000000E+01  6.00000000000000E+01  6.00000000000000E+01
 Lengths [Bohr]
  7.30506145659054E+00  7.30506145659054E+00  7.30506145659054E+00
 
---SELF-CONSISTENT-FIELD CONVERGENCE--------------------------------------------
 
 getcut: wavevector=  0.0000  0.0000  0.0000  ngfft=  15  15  15
         ecut(hartree)=      4.000   => boxcut(ratio)=   2.13951
 
 ITER STEP NUMBER     1
 vtorho: nnsclo_now=2, note that nnsclo,dbl_nnsclo,istep=0 0 1
 Total charge density [el/Bohr^3]
      Maximum=    8.8839E-02  at reduced coord.    0.1333    0.1333    0.6000
      Minimum=    3.2837E-03  at reduced coord.    0.7333    0.7333    0.7333
   Integrated=    8.0000E+00
 ETOT  1  -8.3774122590635    -8.377E+00 6.735E-06 1.536E-04
 scprqt: <Vxc>= -3.3899376E-01 hartree
 
 Simple mixing update:
  residual square of the potential:   5.148708245097227E-005
 scfcv_core: previous iteration took  0.15 [s]
 
 ITER STEP NUMBER     2
 vtorho: nnsclo_now=2, note that nnsclo,dbl_nnsclo,istep=0 0 2
 Total charge density [el/Bohr^3]
      Maximum=    8.8804E-02  at reduced coord.    0.1333    0.1333    0.6000
      Minimum=    3.2877E-03  at reduced coord.    0.7333    0.7333    0.7333
   Integrated=    8.0000E+00
 ETOT  2  -8.3774125155276    -2.565E-07 1.945E-06 1.304E-05
 scprqt: <Vxc>= -3.3901864E-01 hartree
 
 Pulay update with  1 previous iterations:
 mixing of old trial potential: alpha(m:m-4)=   1.33     -0.329
 scfcv_core: previous iteration took  0.12 [s]
 
 ITER STEP NUMBER     3
 vtorho: nnsclo_now=1, note that nnsclo,dbl_nnsclo,istep=0 0 3
 Total charge density [el/Bohr^3]
      Maximum=    8.8796E-02  at reduced coord.    0.1333    0.1333    0.6000
      Minimum=    3.2893E-03  at reduced coord.    0.7333    0.7333    0.7333
   Integrated=    8.0000E+00
 ETOT  3  -8.3774125323129    -1.679E-08 1.882E-06 3.205E-07
 scprqt: <Vxc>= -3.3902692E-01 hartree
 
 Pulay update with  2 previous iterations:
 mixing of old trial potential: alpha(m:m-4)=   1.33     -0.402      0.685E-01
 scfcv_core: previous iteration took  0.11 [s]
 
 ITER STEP NUMBER     4
 vtorho: nnsclo_now=1, note that nnsclo,dbl_nnsclo,istep=0 0 4
 Total charge density [el/Bohr^3]
      Maximum=    8.8796E-02  at reduced coord.    0.1333    0.1333    0.6000
      Minimum=    3.2896E-03  at reduced coord.    0.7333    0.7333    0.7333
   Integrated=    8.0000E+00
 ETOT  4  -8.3774125325444    -2.315E-10 2.137E-06 2.423E-09
 scprqt: <Vxc>= -3.3902796E-01 hartree
 
 Pulay update with  3 previous iterations:
 mixing of old trial potential: alpha(m:m-4)=   1.24     -0.301      0.768E-01 -0.134E-01
 scfcv_core: previous iteration took  0.12 [s]
 
 ITER STEP NUMBER     5
 vtorho: nnsclo_now=1, note that nnsclo,dbl_nnsclo,istep=0 0 5
 Total charge density [el/Bohr^3]
      Maximum=    8.8796E-02  at reduced coord.    0.1333    0.1333    0.6000
      Minimum=    3.2896E-03  at reduced coord.    0.7333    0.7333    0.7333
   Integrated=    8.0000E+00
 ETOT  5  -8.3774125325452    -8.047E-13 2.019E-06 9.176E-12
 scprqt: <Vxc>= -3.3902801E-01 hartree
 
 At SCF step    5       vres2   =  9.18E-12 < tolvrs=  1.00E-10 =>converged.
 
 Cartesian components of stress tensor (hartree/bohr^3)
  sigma(1 1)=  1.20164968E-05  sigma(3 2)=  0.00000000E+00
  sigma(2 2)=  1.20164968E-05  sigma(3 1)=  0.00000000E+00
  sigma(3 3)=  1.20164968E-05  sigma(2 1)=  0.00000000E+00
 
 
   fftdatar_write: About to write data to: opto_TIM2_DEN with iomode: IO_MODE_FORTRAN
 IO operation completed. cpu:  0.00 [s] , wall:  0.00 [s]
- Creating HDf5 file with MPI-IO support: opto_GSR.nc
 Write iteration in HIST netCDF file
 
---OUTPUT-----------------------------------------------------------------------
 
 Cartesian coordinates (xcart) [bohr]
 -3.33294281057949E-27  3.33294281057949E-27  6.66588562115899E-27
  2.58272924646983E+00  2.58272924646983E+00  2.58272924646983E+00
 Reduced coordinates (xred)
 -6.45236587446224E-28  1.29047317489245E-27  0.00000000000000E+00
  2.50000000000000E-01  2.50000000000000E-01  2.50000000000000E-01
 Cartesian forces (fcart) [Ha/bohr]; max,rms= 1.00086E-26 7.94171E-27 (free atoms)
 -1.00085574891809E-26  6.67237165945393E-27  6.67237165945393E-27
  1.00085574891809E-26 -6.67237165945393E-27 -6.67237165945393E-27
 Reduced forces (fred)
  1.72329294281881E-26 -6.89317177127523E-26  1.72329294281881E-26
 -1.72329294281881E-26  6.89317177127523E-26 -1.72329294281881E-26
 Scale of Primitive Cell (acell) [bohr]
  7.30506145659054E+00  7.30506145659054E+00  7.30506145659054E+00
 Real space primitive translations (rprimd) [bohr]
  5.16545849293965E+00  5.16545849293965E+00  0.00000000000000E+00
  0.00000000000000E+00  5.16545849293965E+00  5.16545849293965E+00
  5.16545849293965E+00  0.00000000000000E+00  5.16545849293965E+00
 Unitary Cell Volume (ucvol) [Bohr^3]=  2.75649128680652E+02
 Angles (23,13,12)= [degrees]
  6.00000000000000E+01  6.00000000000000E+01  6.00000000000000E+01
 Lengths [Bohr]
  7.30506145659054E+00  7.30506145659054E+00  7.30506145659054E+00
 Stress tensor in cartesian coordinates (strten) [Ha/bohr^3]
  1.20164967718586E-05  0.00000000000000E+00  0.00000000000000E+00
  0.00000000000000E+00  1.20164967718586E-05  0.00000000000000E+00
  0.00000000000000E+00  0.00000000000000E+00  1.20164967718590E-05
 Total energy (etotal) [Ha]= -8.37741253254518E+00
 
 Difference of energy with previous step (new-old):
           Absolute (Ha)=-5.68490E-06
           Relative     =-6.78599E-07
 fconv : at Broyd/MD step   2, gradients have not converged yet. 
  max grad (force/stress) = 1.2016E-03 > tolmxf= 1.0000E-08 ha/bohr (free atoms)
 
 EXIT:           1           1
 mover: previous time step took  0.91 [s]
 
--- Iteration: ( 3/15) Internal Cycle: (1/1)
--------------------------------------------------------------------------------
 
 Cartesian coordinates (xcart) [bohr]
 -4.17973026125156E-26  2.89743078293991E-26  3.23026260925650E-26
  2.57914564046893E+00  2.57914564046893E+00  2.57914564046893E+00
 Reduced coordinates (xred)
 -4.37408614771722E-27  9.99112214885810E-27 -3.72884956027099E-27
  2.50000000000000E-01  2.50000000000000E-01  2.50000000000000E-01
 Scale of Primitive Cell (acell) [bohr]
  7.29492548817321E+00  7.29492548817321E+00  7.29492548817321E+00
 Real space primitive translations (rprimd) [bohr]
  5.15829128093786E+00  5.15829128093786E+00  0.00000000000000E+00
  0.00000000000000E+00  5.15829128093786E+00  5.15829128093786E+00
  5.15829128093786E+00  0.00000000000000E+00  5.15829128093786E+00
 Unitary Cell Volume (ucvol) [Bohr^3]=  2.74503308363014E+02
 Angles (23,13,12)= [degrees]
  6.00000000000000E+01  6.00000000000000E+01  6.00000000000000E+01
 Lengths [Bohr]
  7.29492548817321E+00  7.29492548817321E+00  7.29492548817321E+00
 
---SELF-CONSISTENT-FIELD CONVERGENCE--------------------------------------------
 
 getcut: wavevector=  0.0000  0.0000  0.0000  ngfft=  15  15  15
         ecut(hartree)=      4.000   => boxcut(ratio)=   2.14248
 
 ITER STEP NUMBER     1
 vtorho: nnsclo_now=2, note that nnsclo,dbl_nnsclo,istep=0 0 1
 Total charge density [el/Bohr^3]
      Maximum=    8.9250E-02  at reduced coord.    0.1333    0.1333    0.6000
      Minimum=    3.3065E-03  at reduced coord.    0.7333    0.7333    0.7333
   Integrated=    8.0000E+00
 ETOT  1  -8.3774171055581    -8.377E+00 1.614E-06 1.249E-03
 scprqt: <Vxc>= -3.3950165E-01 hartree
 
 Simple mixing update:
  residual square of the potential:   4.194221069036921E-004
 scfcv_core: previous iteration took  0.21 [s]
 
 ITER STEP NUMBER     2
 vtorho: nnsclo_now=2, note that nnsclo,dbl_nnsclo,istep=0 0 2
 Total charge density [el/Bohr^3]
      Maximum=    8.9151E-02  at reduced coord.    0.1333    0.1333    0.6000
      Minimum=    3.3179E-03  at reduced coord.    0.7333    0.7333    0.7333
   Integrated=    8.0000E+00
 ETOT  2  -8.3774191871977    -2.082E-06 5.074E-06 1.053E-04
 scprqt: <Vxc>= -3.3957251E-01 hartree
 
 Pulay update with  1 previous iterations:
 mixing of old trial potential: alpha(m:m-4)=   1.33     -0.328
 scfcv_core: previous iteration took  0.14 [s]
 
 ITER STEP NUMBER     3
 vtorho: nnsclo_now=1, note that nnsclo,dbl_nnsclo,istep=0 0 3
 Total charge density [el/Bohr^3]
      Maximum=    8.9128E-02  at reduced coord.    0.1333    0.1333    0.6000
      Minimum=    3.3224E-03  at reduced coord.    0.7333    0.7333    0.7333
   Integrated=    8.0000E+00
 ETOT  3  -8.3774193224963    -1.353E-07 7.295E-06 2.578E-06
 scprqt: <Vxc>= -3.3959596E-01 hartree
 
 Pulay update with  2 previous iterations:
 mixing of old trial potential: alpha(m:m-4)=   1.33     -0.400      0.679E-01
 scfcv_core: previous iteration took  0.08 [s]
 
 ITER STEP NUMBER     4
 vtorho: nnsclo_now=1, note that nnsclo,dbl_nnsclo,istep=0 0 4
 Total charge density [el/Bohr^3]
      Maximum=    8.9128E-02  at reduced coord.    0.1333    0.1333    0.6000
      Minimum=    3.3233E-03  at reduced coord.    0.7333    0.7333    0.7333
   Integrated=    8.0000E+00
 ETOT  4  -8.3774193243543    -1.858E-09 4.652E-06 1.944E-08
 scprqt: <Vxc>= -3.3959889E-01 hartree
 
 Pulay update with  3 previous iterations:
 mixing of old trial potential: alpha(m:m-4)=   1.24     -0.300      0.762E-01 -0.133E-01
 scfcv_core: previous iteration took  0.05 [s]
 
 ITER STEP NUMBER     5
 vtorho: nnsclo_now=1, note that nnsclo,dbl_nnsclo,istep=0 0 5
 Total charge density [el/Bohr^3]
      Maximum=    8.9128E-02  at reduced coord.    0.1333    0.1333    0.6000
      Minimum=    3.3234E-03  at reduced coord.    0.7333    0.7333    0.7333
   Integrated=    8.0000E+00
 ETOT  5  -8.3774193243607    -6.427E-12 6.846E-06 7.305E-11
 scprqt: <Vxc>= -3.3959904E-01 hartree
 
 At SCF step    5       vres2   =  7.30E-11 < tolvrs=  1.00E-10 =>converged.
 
 Cartesian components of stress tensor (hartree/bohr^3)
  sigma(1 1)= -2.08795602E-07  sigma(3 2)=  0.00000000E+00
  sigma(2 2)= -2.08795602E-07  sigma(3 1)=  0.00000000E+00
  sigma(3 3)= -2.08795602E-07  sigma(2 1)=  0.00000000E+00
 
 
   fftdatar_write: About to write data to: opto_TIM3_DEN with iomode: IO_MODE_FORTRAN
 IO operation completed. cpu:  0.00 [s] , wall:  0.01 [s]
- Creating HDf5 file with MPI-IO support: opto_GSR.nc
 Write iteration in HIST netCDF file
 
---OUTPUT-----------------------------------------------------------------------
 
 Cartesian coordinates (xcart) [bohr]
 -4.17973026125156E-26  2.89743078293991E-26  3.23026260925650E-26
  2.57914564046893E+00  2.57914564046893E+00  2.57914564046893E+00
 Reduced coordinates (xred)
 -4.37408614771722E-27  9.99112214885810E-27 -3.72884956027099E-27
  2.50000000000000E-01  2.50000000000000E-01  2.50000000000000E-01
 Cartesian forces (fcart) [Ha/bohr]; max,rms= 1.67041E-26 1.23505E-26 (free atoms)
  7.17464813734306E-43  1.67041065438387E-26 -1.33632852350710E-26
 -7.17464813734306E-43 -1.67041065438387E-26  1.33632852350710E-26
 Reduced forces (fred)
 -8.61646471409404E-26 -1.72329294281880E-26  6.89317177127523E-26
  8.61646471409404E-26  1.72329294281880E-26 -6.89317177127523E-26
 Scale of Primitive Cell (acell) [bohr]
  7.29492548817321E+00  7.29492548817321E+00  7.29492548817321E+00
 Real space primitive translations (rprimd) [bohr]
  5.15829128093786E+00  5.15829128093786E+00  0.00000000000000E+00
  0.00000000000000E+00  5.15829128093786E+00  5.15829128093786E+00
  5.15829128093786E+00  0.00000000000000E+00  5.15829128093786E+00
 Unitary Cell Volume (ucvol) [Bohr^3]=  2.74503308363014E+02
 Angles (23,13,12)= [degrees]
  6.00000000000000E+01  6.00000000000000E+01  6.00000000000000E+01
 Lengths [Bohr]
  7.29492548817321E+00  7.29492548817321E+00  7.29492548817321E+00
 Stress tensor in cartesian coordinates (strten) [Ha/bohr^3]
 -2.08795601631690E-07  0.00000000000000E+00  0.00000000000000E+00
  0.00000000000000E+00 -2.08795601631256E-07  0.00000000000000E+00
  0.00000000000000E+00  0.00000000000000E+00 -2.08795601630823E-07
 Total energy (etotal) [Ha]= -8.37741932436070E+00
 
 Difference of energy with previous step (new-old):
           Absolute (Ha)=-6.79182E-06
           Relative     =-8.10729E-07
 fconv : at Broyd/MD step   3, gradients have not converged yet. 
  max grad (force/stress) = 2.0880E-05 > tolmxf= 1.0000E-08 ha/bohr (free atoms)
 
 EXIT:           1           1
 mover: previous time step took  0.87 [s]
 
--- Iteration: ( 4/15) Internal Cycle: (1/1)
--------------------------------------------------------------------------------
 
 Cartesian coordinates (xcart) [bohr]
 -4.13137884280194E-26  4.50109090325299E-26  1.88932539644268E-26
  2.57920659473959E+00  2.57920659473959E+00  2.57920659473959E+00
 Reduced coordinates (xred)
 -1.47294650522660E-27  1.01986742395484E-26 -6.53606458219090E-27
  2.50000000000000E-01  2.50000000000000E-01  2.50000000000000E-01
 Scale of Primitive Cell (acell) [bohr]
  7.29509789288571E+00  7.29509789288571E+00  7.29509789288571E+00
 Real space primitive translations (rprimd) [bohr]
  5.15841318947918E+00  5.15841318947918E+00  0.00000000000000E+00
  0.00000000000000E+00  5.15841318947918E+00  5.15841318947918E+00
  5.15841318947918E+00  0.00000000000000E+00  5.15841318947918E+00
 Unitary Cell Volume (ucvol) [Bohr^3]=  2.74522771255067E+02
 Angles (23,13,12)= [degrees]
  6.00000000000000E+01  6.00000000000000E+01  6.00000000000000E+01
 Lengths [Bohr]
  7.29509789288571E+00  7.29509789288571E+00  7.29509789288571E+00
 
---SELF-CONSISTENT-FIELD CONVERGENCE--------------------------------------------
 
 getcut: wavevector=  0.0000  0.0000  0.0000  ngfft=  15  15  15
         ecut(hartree)=      4.000   => boxcut(ratio)=   2.14243
 
 ITER STEP NUMBER     1
 vtorho: nnsclo_now=2, note that nnsclo,dbl_nnsclo,istep=0 0 1
 Total charge density [el/Bohr^3]
      Maximum=    8.9120E-02  at reduced coord.    0.1333    0.1333    0.6000
      Minimum=    3.3231E-03  at reduced coord.    0.7333    0.7333    0.7333
   Integrated=    8.0000E+00
 ETOT  1  -8.3774193256101    -8.377E+00 6.435E-06 3.614E-07
 scprqt: <Vxc>= -3.3959097E-01 hartree
 
 Simple mixing update:
  residual square of the potential:   1.213630173203665E-007
 scfcv_core: previous iteration took  0.15 [s]
 
 ITER STEP NUMBER     2
 vtorho: nnsclo_now=2, note that nnsclo,dbl_nnsclo,istep=0 0 2
 Total charge density [el/Bohr^3]
      Maximum=    8.9122E-02  at reduced coord.    0.1333    0.1333    0.6000
      Minimum=    3.3229E-03  at reduced coord.    0.7333    0.7333    0.7333
   Integrated=    8.0000E+00
 ETOT  2  -8.3774193262129    -6.027E-10 5.898E-06 3.045E-08
 scprqt: <Vxc>= -3.3958977E-01 hartree
 
 Pulay update with  1 previous iterations:
 mixing of old trial potential: alpha(m:m-4)=   1.33     -0.328
 scfcv_core: previous iteration took  0.12 [s]
 
 ITER STEP NUMBER     3
 vtorho: nnsclo_now=1, note that nnsclo,dbl_nnsclo,istep=0 0 3
 Total charge density [el/Bohr^3]
      Maximum=    8.9122E-02  at reduced coord.    0.1333    0.1333    0.6000
      Minimum=    3.3228E-03  at reduced coord.    0.7333    0.7333    0.7333
   Integrated=    8.0000E+00
 ETOT  3  -8.3774193262519    -3.909E-11 2.861E-06 7.448E-10
 scprqt: <Vxc>= -3.3958937E-01 hartree
 
 Pulay update with  2 previous iterations:
 mixing of old trial potential: alpha(m:m-4)=   1.33     -0.399      0.677E-01
 scfcv_core: previous iteration took  0.09 [s]
 
 ITER STEP NUMBER     4
 vtorho: nnsclo_now=1, note that nnsclo,dbl_nnsclo,istep=0 0 4
 Total charge density [el/Bohr^3]
      Maximum=    8.9122E-02  at reduced coord.    0.1333    0.1333    0.6000
      Minimum=    3.3228E-03  at reduced coord.    0.7333    0.7333    0.7333
   Integrated=    8.0000E+00
 ETOT  4  -8.3774193262525    -5.240E-13 5.296E-06 5.627E-12
 scprqt: <Vxc>= -3.3958932E-01 hartree
 
 At SCF step    4       vres2   =  5.63E-12 < tolvrs=  1.00E-10 =>converged.
 
 Cartesian components of stress tensor (hartree/bohr^3)
  sigma(1 1)=  1.44744886E-08  sigma(3 2)=  0.00000000E+00
  sigma(2 2)=  1.44744886E-08  sigma(3 1)=  0.00000000E+00
  sigma(3 3)=  1.44744886E-08  sigma(2 1)=  0.00000000E+00
 
 
   fftdatar_write: About to write data to: opto_TIM4_DEN with iomode: IO_MODE_FORTRAN
 IO operation completed. cpu:  0.00 [s] , wall:  0.01 [s]
- Creating HDf5 file with MPI-IO support: opto_GSR.nc
 Write iteration in HIST netCDF file
 
---OUTPUT-----------------------------------------------------------------------
 
 Cartesian coordinates (xcart) [bohr]
 -4.13137884280194E-26  4.50109090325299E-26  1.88932539644268E-26
  2.57920659473959E+00  2.57920659473959E+00  2.57920659473959E+00
 Reduced coordinates (xred)
 -1.47294650522660E-27  1.01986742395484E-26 -6.53606458219090E-27
  2.50000000000000E-01  2.50000000000000E-01  2.50000000000000E-01
 Cartesian forces (fcart) [Ha/bohr]; max,rms= 2.00445E-26 1.35014E-26 (free atoms)
 -6.68148471058326E-27 -1.00222270658749E-26  2.00444541317498E-26
  6.68148471058326E-27  1.00222270658749E-26 -2.00444541317498E-26
 Reduced forces (fred)
  8.61646471409404E-26 -5.16987882845642E-26 -6.89317177127523E-26
 -8.61646471409404E-26  5.16987882845642E-26  6.89317177127523E-26
 Scale of Primitive Cell (acell) [bohr]
  7.29509789288571E+00  7.29509789288571E+00  7.29509789288571E+00
 Real space primitive translations (rprimd) [bohr]
  5.15841318947918E+00  5.15841318947918E+00  0.00000000000000E+00
  0.00000000000000E+00  5.15841318947918E+00  5.15841318947918E+00
  5.15841318947918E+00  0.00000000000000E+00  5.15841318947918E+00
 Unitary Cell Volume (ucvol) [Bohr^3]=  2.74522771255067E+02
 Angles (23,13,12)= [degrees]
  6.00000000000000E+01  6.00000000000000E+01  6.00000000000000E+01
 Lengths [Bohr]
  7.29509789288571E+00  7.29509789288571E+00  7.29509789288571E+00
 Stress tensor in cartesian coordinates (strten) [Ha/bohr^3]
  1.44744886471614E-08  0.00000000000000E+00  0.00000000000000E+00
  0.00000000000000E+00  1.44744886467277E-08  0.00000000000000E+00
  0.00000000000000E+00  0.00000000000000E+00  1.44744886467277E-08
 Total energy (etotal) [Ha]= -8.37741932625247E+00
 
 Difference of energy with previous step (new-old):
           Absolute (Ha)=-1.89177E-09
           Relative     =-2.25818E-10
 fconv : at Broyd/MD step   4, gradients have not converged yet. 
  max grad (force/stress) = 1.4474E-06 > tolmxf= 1.0000E-08 ha/bohr (free atoms)
 
 EXIT:           1           1
 mover: previous time step took  0.78 [s]
 
--- Iteration: ( 5/15) Internal Cycle: (1/1)
--------------------------------------------------------------------------------
 
 Cartesian coordinates (xcart) [bohr]
 -4.75703362509039E-26  3.57123351088633E-26  3.75750817711405E-26
  2.57920264284260E+00  2.57920264284260E+00  2.57920264284260E+00
 Reduced coordinates (xred)
 -4.79150824484072E-27  1.17146430376742E-26 -4.43039922778725E-27
  2.50000000000000E-01  2.50000000000000E-01  2.50000000000000E-01
 Scale of Primitive Cell (acell) [bohr]
  7.29508671523307E+00  7.29508671523307E+00  7.29508671523307E+00
 Real space primitive translations (rprimd) [bohr]
  5.15840528568520E+00  5.15840528568520E+00  0.00000000000000E+00
  0.00000000000000E+00  5.15840528568520E+00  5.15840528568520E+00
  5.15840528568520E+00  0.00000000000000E+00  5.15840528568520E+00
 Unitary Cell Volume (ucvol) [Bohr^3]=  2.74521509373929E+02
 Angles (23,13,12)= [degrees]
  6.00000000000000E+01  6.00000000000000E+01  6.00000000000000E+01
 Lengths [Bohr]
  7.29508671523307E+00  7.29508671523307E+00  7.29508671523307E+00
 
---SELF-CONSISTENT-FIELD CONVERGENCE--------------------------------------------
 
 getcut: wavevector=  0.0000  0.0000  0.0000  ngfft=  15  15  15
         ecut(hartree)=      4.000   => boxcut(ratio)=   2.14243
 
 ITER STEP NUMBER     1
 vtorho: nnsclo_now=2, note that nnsclo,dbl_nnsclo,istep=0 0 1
 Total charge density [el/Bohr^3]
      Maximum=    8.9122E-02  at reduced coord.    0.1333    0.1333    0.6000
      Minimum=    3.3228E-03  at reduced coord.    0.7333    0.7333    0.7333
   Integrated=    8.0000E+00
 ETOT  1  -8.3774193262588    -8.377E+00 4.393E-06 1.525E-09
 scprqt: <Vxc>= -3.3958984E-01 hartree
 
 Simple mixing update:
  residual square of the potential:   5.124391332453614E-010
 scfcv_core: previous iteration took  0.14 [s]
 
 ITER STEP NUMBER     2
 vtorho: nnsclo_now=2, note that nnsclo,dbl_nnsclo,istep=0 0 2
 Total charge density [el/Bohr^3]
      Maximum=    8.9122E-02  at reduced coord.    0.1333    0.1333    0.6000
      Minimum=    3.3228E-03  at reduced coord.    0.7333    0.7333    0.7333
   Integrated=    8.0000E+00
 ETOT  2  -8.3774193262614    -2.574E-12 3.716E-06 1.273E-10
 scprqt: <Vxc>= -3.3958992E-01 hartree
 
 Pulay update with  1 previous iterations:
 mixing of old trial potential: alpha(m:m-4)=   1.32     -0.325
 scfcv_core: previous iteration took  0.18 [s]
 
 ITER STEP NUMBER     3
 vtorho: nnsclo_now=1, note that nnsclo,dbl_nnsclo,istep=0 0 3
 Total charge density [el/Bohr^3]
      Maximum=    8.9122E-02  at reduced coord.    0.1333    0.1333    0.6000
      Minimum=    3.3228E-03  at reduced coord.    0.7333    0.7333    0.7333
   Integrated=    8.0000E+00
 ETOT  3  -8.3774193262616    -1.439E-13 1.563E-06 3.151E-12
 scprqt: <Vxc>= -3.3958994E-01 hartree
 
 At SCF step    3       vres2   =  3.15E-12 < tolvrs=  1.00E-10 =>converged.
 
 Cartesian components of stress tensor (hartree/bohr^3)
  sigma(1 1)= -2.32330450E-10  sigma(3 2)=  0.00000000E+00
  sigma(2 2)= -2.32330450E-10  sigma(3 1)=  0.00000000E+00
  sigma(3 3)= -2.32330449E-10  sigma(2 1)=  0.00000000E+00
 
 
   fftdatar_write: About to write data to: opto_TIM5_DEN with iomode: IO_MODE_FORTRAN
 IO operation completed. cpu:  0.00 [s] , wall:  0.00 [s]
- Creating HDf5 file with MPI-IO support: opto_GSR.nc
 Write iteration in HIST netCDF file
 
---OUTPUT-----------------------------------------------------------------------
 
 Cartesian coordinates (xcart) [bohr]
 -4.75703362509039E-26  3.57123351088633E-26  3.75750817711405E-26
  2.57920264284260E+00  2.57920264284260E+00  2.57920264284260E+00
 Reduced coordinates (xred)
 -4.79150824484072E-27  1.17146430376742E-26 -4.43039922778725E-27
  2.50000000000000E-01  2.50000000000000E-01  2.50000000000000E-01
 Cartesian forces (fcart) [Ha/bohr]; max,rms= 6.68149E-27 4.31289E-27 (free atoms)
  3.34074747403237E-27 -6.68149494806475E-27  0.00000000000000E+00
 -3.34074747403237E-27  6.68149494806475E-27  0.00000000000000E+00
 Reduced forces (fred)
  1.72329294281881E-26  3.44658588563762E-26 -1.72329294281881E-26
 -1.72329294281881E-26 -3.44658588563762E-26  1.72329294281881E-26
 Scale of Primitive Cell (acell) [bohr]
  7.29508671523307E+00  7.29508671523307E+00  7.29508671523307E+00
 Real space primitive translations (rprimd) [bohr]
  5.15840528568520E+00  5.15840528568520E+00  0.00000000000000E+00
  0.00000000000000E+00  5.15840528568520E+00  5.15840528568520E+00
  5.15840528568520E+00  0.00000000000000E+00  5.15840528568520E+00
 Unitary Cell Volume (ucvol) [Bohr^3]=  2.74521509373929E+02
 Angles (23,13,12)= [degrees]
  6.00000000000000E+01  6.00000000000000E+01  6.00000000000000E+01
 Lengths [Bohr]
  7.29508671523307E+00  7.29508671523307E+00  7.29508671523307E+00
 Stress tensor in cartesian coordinates (strten) [Ha/bohr^3]
 -2.32330450017360E-10  0.00000000000000E+00  0.00000000000000E+00
  0.00000000000000E+00 -2.32330450451040E-10  0.00000000000000E+00
  0.00000000000000E+00  0.00000000000000E+00 -2.32330449149998E-10
 Total energy (etotal) [Ha]= -8.37741932626156E+00
 
 Difference of energy with previous step (new-old):
           Absolute (Ha)=-9.09139E-12
           Relative     =-1.08523E-12
 fconv : at Broyd/MD step   5, gradients have not converged yet. 
  max grad (force/stress) = 2.3233E-08 > tolmxf= 1.0000E-08 ha/bohr (free atoms)
 
 EXIT:           1           1
 mover: previous time step took  0.69 [s]
 
--- Iteration: ( 6/15) Internal Cycle: (1/1)
--------------------------------------------------------------------------------
 
 Cartesian coordinates (xcart) [bohr]
 -4.43008470957235E-26  2.91498643905586E-26  3.75954375299447E-26
  2.57920270527227E+00  2.57920270527227E+00  2.57920270527227E+00
 Reduced coordinates (xred)
 -5.11266719433183E-27  1.07636120252619E-26 -3.47542225772367E-27
  2.50000000000000E-01  2.50000000000000E-01  2.50000000000000E-01
 Scale of Primitive Cell (acell) [bohr]
  7.29508689181083E+00  7.29508689181083E+00  7.29508689181083E+00
 Real space primitive translations (rprimd) [bohr]
  5.15840541054453E+00  5.15840541054453E+00  0.00000000000000E+00
  1.19533339903679E-17  5.15840541054453E+00  5.15840541054453E+00
  5.15840541054453E+00 -1.19533339903679E-17  5.15840541054453E+00
 Unitary Cell Volume (ucvol) [Bohr^3]=  2.74521529308331E+02
 Angles (23,13,12)= [degrees]
  6.00000000000000E+01  6.00000000000000E+01  6.00000000000000E+01
 Lengths [Bohr]
  7.29508689181083E+00  7.29508689181083E+00  7.29508689181083E+00
 
---SELF-CONSISTENT-FIELD CONVERGENCE--------------------------------------------
 
 getcut: wavevector=  0.0000  0.0000  0.0000  ngfft=  15  15  15
         ecut(hartree)=      4.000   => boxcut(ratio)=   2.14243
 
 ITER STEP NUMBER     1
 vtorho: nnsclo_now=2, note that nnsclo,dbl_nnsclo,istep=0 0 1
 Total charge density [el/Bohr^3]
      Maximum=    8.9122E-02  at reduced coord.    0.1333    0.1333    0.6000
      Minimum=    3.3228E-03  at reduced coord.    0.7333    0.7333    0.7333
   Integrated=    8.0000E+00
 ETOT  1  -8.3774193262616    -8.377E+00 1.256E-06 5.569E-13
 scprqt: <Vxc>= -3.3958994E-01 hartree
 
 At SCF step    1       vres2   =  5.57E-13 < tolvrs=  1.00E-10 =>converged.
 
 Cartesian components of stress tensor (hartree/bohr^3)
  sigma(1 1)=  2.65773330E-10  sigma(3 2)=  0.00000000E+00
  sigma(2 2)=  2.65773330E-10  sigma(3 1)=  0.00000000E+00
  sigma(3 3)=  2.65773330E-10  sigma(2 1)=  0.00000000E+00
 
 
   fftdatar_write: About to write data to: opto_TIM6_DEN with iomode: IO_MODE_FORTRAN
 IO operation completed. cpu:  0.00 [s] , wall:  0.00 [s]
- Creating HDf5 file with MPI-IO support: opto_GSR.nc
 Write iteration in HIST netCDF file
 
---OUTPUT-----------------------------------------------------------------------
 
 Cartesian coordinates (xcart) [bohr]
 -4.43008470957235E-26  2.91498643905586E-26  3.75954375299447E-26
  2.57920270527227E+00  2.57920270527227E+00  2.57920270527227E+00
 Reduced coordinates (xred)
 -5.11266719433183E-27  1.07636120252619E-26 -3.47542225772367E-27
  2.50000000000000E-01  2.50000000000000E-01  2.50000000000000E-01
 Cartesian forces (fcart) [Ha/bohr]; max,rms= 1.67037E-27 1.67037E-27 (free atoms)
 -1.67037369658475E-27  1.67037369658475E-27 -1.67037369658475E-27
  1.67037369658475E-27 -1.67037369658475E-27  1.67037369658475E-27
 Reduced forces (fred)
  0.00000000000000E+00  0.00000000000000E+00  1.72329294281881E-26
  0.00000000000000E+00  0.00000000000000E+00 -1.72329294281881E-26
 Scale of Primitive Cell (acell) [bohr]
  7.29508689181083E+00  7.29508689181083E+00  7.29508689181083E+00
 Real space primitive translations (rprimd) [bohr]
  5.15840541054453E+00  5.15840541054453E+00  0.00000000000000E+00
  1.19533339903679E-17  5.15840541054453E+00  5.15840541054453E+00
  5.15840541054453E+00 -1.19533339903679E-17  5.15840541054453E+00
 Unitary Cell Volume (ucvol) [Bohr^3]=  2.74521529308331E+02
 Angles (23,13,12)= [degrees]
  6.00000000000000E+01  6.00000000000000E+01  6.00000000000000E+01
 Lengths [Bohr]
  7.29508689181083E+00  7.29508689181083E+00  7.29508689181083E+00
 Stress tensor in cartesian coordinates (strten) [Ha/bohr^3]
  2.65773329559404E-10  0.00000000000000E+00  0.00000000000000E+00
  0.00000000000000E+00  2.65773330426766E-10  0.00000000000000E+00
  0.00000000000000E+00  0.00000000000000E+00  2.65773329559404E-10
 Total energy (etotal) [Ha]= -8.37741932626159E+00
 
 Difference of energy with previous step (new-old):
           Absolute (Ha)=-2.30926E-14
           Relative     =-2.75653E-15
 fconv : at Broyd/MD step   6, gradients have not converged yet. 
  max grad (force/stress) = 2.6577E-08 > tolmxf= 1.0000E-08 ha/bohr (free atoms)
 
 EXIT:           1           1
 mover: previous time step took  0.43 [s]
 
--- Iteration: ( 7/15) Internal Cycle: (1/1)
--------------------------------------------------------------------------------
 
 Cartesian coordinates (xcart) [bohr]
 -4.50456489430156E-26  2.98757723776968E-26  3.68083457466506E-26
  2.57920267196166E+00  2.57920267196166E+00  2.57920267196166E+00
 Reduced coordinates (xred)
 -5.03820646560866E-27  1.08298747013922E-26 -3.69426916197654E-27
  2.50000000000000E-01  2.50000000000000E-01  2.50000000000000E-01
 Scale of Primitive Cell (acell) [bohr]
  7.29508679759420E+00  7.29508679759420E+00  7.29508679759420E+00
 Real space primitive translations (rprimd) [bohr]
  5.15840534392332E+00  5.15840534392332E+00  0.00000000000000E+00
  0.00000000000000E+00  5.15840534392332E+00  5.15840534392332E+00
  5.15840534392332E+00  0.00000000000000E+00  5.15840534392332E+00
 Unitary Cell Volume (ucvol) [Bohr^3]=  2.74521518671929E+02
 Angles (23,13,12)= [degrees]
  6.00000000000000E+01  6.00000000000000E+01  6.00000000000000E+01
 Lengths [Bohr]
  7.29508679759420E+00  7.29508679759420E+00  7.29508679759420E+00
 
---SELF-CONSISTENT-FIELD CONVERGENCE--------------------------------------------
 
 getcut: wavevector=  0.0000  0.0000  0.0000  ngfft=  15  15  15
         ecut(hartree)=      4.000   => boxcut(ratio)=   2.14243
 
 ITER STEP NUMBER     1
 vtorho: nnsclo_now=2, note that nnsclo,dbl_nnsclo,istep=0 0 1
 Total charge density [el/Bohr^3]
      Maximum=    8.9122E-02  at reduced coord.    0.1333    0.1333    0.6000
      Minimum=    3.3228E-03  at reduced coord.    0.7333    0.7333    0.7333
   Integrated=    8.0000E+00
 ETOT  1  -8.3774193262616    -8.377E+00 1.000E-06 3.113E-13
 scprqt: <Vxc>= -3.3958994E-01 hartree
 
 At SCF step    1       vres2   =  3.11E-13 < tolvrs=  1.00E-10 =>converged.
 
 Cartesian components of stress tensor (hartree/bohr^3)
  sigma(1 1)= -1.32948241E-10  sigma(3 2)=  0.00000000E+00
  sigma(2 2)= -1.32948241E-10  sigma(3 1)=  0.00000000E+00
  sigma(3 3)= -1.32948241E-10  sigma(2 1)=  0.00000000E+00
 
 
   fftdatar_write: About to write data to: opto_TIM7_DEN with iomode: IO_MODE_FORTRAN
 IO operation completed. cpu:  0.00 [s] , wall:  0.00 [s]
- Creating HDf5 file with MPI-IO support: opto_GSR.nc
 Write iteration in HIST netCDF file
 
---OUTPUT-----------------------------------------------------------------------
 
 Cartesian coordinates (xcart) [bohr]
 -4.50456489430156E-26  2.98757723776968E-26  3.68083457466506E-26
  2.57920267196166E+00  2.57920267196166E+00  2.57920267196166E+00
 Reduced coordinates (xred)
 -5.03820646560866E-27  1.08298747013922E-26 -3.69426916197654E-27
  2.50000000000000E-01  2.50000000000000E-01  2.50000000000000E-01
 Cartesian forces (fcart) [Ha/bohr]; max,rms= 2.50556E-26 1.85755E-26 (free atoms)
  8.35186859078879E-27  1.83741108997353E-26 -2.50556057723664E-26
 -8.35186859078879E-27 -1.83741108997353E-26  2.50556057723664E-26
 Reduced forces (fred)
 -1.37863435425505E-25  3.44658588563761E-26  8.61646471409404E-26
  1.37863435425505E-25 -3.44658588563761E-26 -8.61646471409404E-26
 Scale of Primitive Cell (acell) [bohr]
  7.29508679759420E+00  7.29508679759420E+00  7.29508679759420E+00
 Real space primitive translations (rprimd) [bohr]
  5.15840534392332E+00  5.15840534392332E+00  0.00000000000000E+00
  0.00000000000000E+00  5.15840534392332E+00  5.15840534392332E+00
  5.15840534392332E+00  0.00000000000000E+00  5.15840534392332E+00
 Unitary Cell Volume (ucvol) [Bohr^3]=  2.74521518671929E+02
 Angles (23,13,12)= [degrees]
  6.00000000000000E+01  6.00000000000000E+01  6.00000000000000E+01
 Lengths [Bohr]
  7.29508679759420E+00  7.29508679759420E+00  7.29508679759420E+00
 Stress tensor in cartesian coordinates (strten) [Ha/bohr^3]
 -1.32948240524206E-10  0.00000000000000E+00  0.00000000000000E+00
  0.00000000000000E+00 -1.32948240957886E-10  0.00000000000000E+00
  0.00000000000000E+00  0.00000000000000E+00 -1.32948241391567E-10
 Total energy (etotal) [Ha]= -8.37741932626157E+00
 
 Difference of energy with previous step (new-old):
           Absolute (Ha)= 1.42109E-14
           Relative     = 1.69633E-15
 fconv : at Broyd/MD step   7, gradients have not converged yet. 
  max grad (force/stress) = 1.3295E-08 > tolmxf= 1.0000E-08 ha/bohr (free atoms)
 
 EXIT:           1           1
 mover: previous time step took  0.38 [s]
 
--- Iteration: ( 8/15) Internal Cycle: (1/1)
--------------------------------------------------------------------------------
 
 Cartesian coordinates (xcart) [bohr]
 -3.98057451203455E-26  4.23908505992763E-26  1.98764978858501E-26
  2.57920268306863E+00  2.57920268306863E+00  2.57920268306863E+00
 Reduced coordinates (xred)
 -1.67604047952783E-27  9.89386121877301E-27 -6.04063595339722E-27
  2.50000000000000E-01  2.50000000000000E-01  2.50000000000000E-01
 Scale of Primitive Cell (acell) [bohr]
  7.29508682900945E+00  7.29508682900945E+00  7.29508682900945E+00
 Real space primitive translations (rprimd) [bohr]
  5.15840536613725E+00  5.15840536613725E+00  0.00000000000000E+00
  0.00000000000000E+00  5.15840536613725E+00  5.15840536613725E+00
  5.15840536613725E+00  0.00000000000000E+00  5.15840536613725E+00
 Unitary Cell Volume (ucvol) [Bohr^3]=  2.74521522218492E+02
 Angles (23,13,12)= [degrees]
  6.00000000000000E+01  6.00000000000000E+01  6.00000000000000E+01
 Lengths [Bohr]
  7.29508682900945E+00  7.29508682900945E+00  7.29508682900945E+00
 
---SELF-CONSISTENT-FIELD CONVERGENCE--------------------------------------------
 
 getcut: wavevector=  0.0000  0.0000  0.0000  ngfft=  15  15  15
         ecut(hartree)=      4.000   => boxcut(ratio)=   2.14243
 
 ITER STEP NUMBER     1
 vtorho: nnsclo_now=2, note that nnsclo,dbl_nnsclo,istep=0 0 1
 Total charge density [el/Bohr^3]
      Maximum=    8.9122E-02  at reduced coord.    0.1333    0.1333    0.6000
      Minimum=    3.3228E-03  at reduced coord.    0.7333    0.7333    0.7333
   Integrated=    8.0000E+00
 ETOT  1  -8.3774193262616    -8.377E+00 8.089E-07 7.378E-14
 scprqt: <Vxc>= -3.3958994E-01 hartree
 
 At SCF step    1       vres2   =  7.38E-14 < tolvrs=  1.00E-10 =>converged.
 
 Cartesian components of stress tensor (hartree/bohr^3)
  sigma(1 1)=  8.35392077E-11  sigma(3 2)=  0.00000000E+00
  sigma(2 2)=  8.35392081E-11  sigma(3 1)=  0.00000000E+00
  sigma(3 3)=  8.35392072E-11  sigma(2 1)=  0.00000000E+00
 
 
   fftdatar_write: About to write data to: opto_TIM8_DEN with iomode: IO_MODE_FORTRAN
 IO operation completed. cpu:  0.00 [s] , wall:  0.00 [s]
- Creating HDf5 file with MPI-IO support: opto_GSR.nc
 Write iteration in HIST netCDF file
 
---OUTPUT-----------------------------------------------------------------------
 
 Cartesian coordinates (xcart) [bohr]
 -3.98057451203455E-26  4.23908505992763E-26  1.98764978858501E-26
  2.57920268306863E+00  2.57920268306863E+00  2.57920268306863E+00
 Reduced coordinates (xred)
 -1.67604047952783E-27  9.89386121877301E-27 -6.04063595339722E-27
  2.50000000000000E-01  2.50000000000000E-01  2.50000000000000E-01
 Cartesian forces (fcart) [Ha/bohr]; max,rms= 8.35187E-27 5.01112E-27 (free atoms)
 -1.67037371096453E-27  8.35186855482266E-27 -1.67037371096453E-27
  1.67037371096453E-27 -8.35186855482266E-27  1.67037371096453E-27
 Reduced forces (fred)
 -3.44658588563761E-26 -3.44658588563761E-26  1.72329294281881E-26
  3.44658588563761E-26  3.44658588563761E-26 -1.72329294281881E-26
 Scale of Primitive Cell (acell) [bohr]
  7.29508682900945E+00  7.29508682900945E+00  7.29508682900945E+00
 Real space primitive translations (rprimd) [bohr]
  5.15840536613725E+00  5.15840536613725E+00  0.00000000000000E+00
  0.00000000000000E+00  5.15840536613725E+00  5.15840536613725E+00
  5.15840536613725E+00  0.00000000000000E+00  5.15840536613725E+00
 Unitary Cell Volume (ucvol) [Bohr^3]=  2.74521522218492E+02
 Angles (23,13,12)= [degrees]
  6.00000000000000E+01  6.00000000000000E+01  6.00000000000000E+01
 Lengths [Bohr]
  7.29508682900945E+00  7.29508682900945E+00  7.29508682900945E+00
 Stress tensor in cartesian coordinates (strten) [Ha/bohr^3]
  8.35392076695141E-11  0.00000000000000E+00  0.00000000000000E+00
  0.00000000000000E+00  8.35392081031949E-11  0.00000000000000E+00
  0.00000000000000E+00  0.00000000000000E+00  8.35392072358332E-11
 Total energy (etotal) [Ha]= -8.37741932626158E+00
 
 Difference of energy with previous step (new-old):
           Absolute (Ha)=-5.32907E-15
           Relative     =-6.36123E-16
 
 At Broyd/MD step   8, gradients are converged : 
  max grad (force/stress) = 8.3539E-09 < tolmxf= 1.0000E-08 ha/bohr (free atoms)
 
================================================================================
 
 ----iterations are completed or convergence reached----
 
 
 === Gap info ===
  >>>> For spin  1
   Minimum direct gap =   2.9524 [eV], located at k-point      :  -0.0833  0.0000  0.0000
   Fundamental gap    =   1.3036 [eV], Top of valence bands at :  -0.0833  0.0000  0.0000
                                       Bottom of conduction at :  -0.4167  0.5000  0.0000
 Mean square residual over all n,k,spin=   48.148E-10; max=  80.888E-08
  -0.0833 -0.1667  0.0000    1  1.43421E-17 kpt; spin; max resid(k); each band:
  4.46E-24 6.43E-23 1.16E-22 1.22E-22 7.92E-21 1.43E-17
  -0.0833 -0.3333  0.0000    1  7.21241E-20 kpt; spin; max resid(k); each band:
  2.22E-22 9.79E-21 9.50E-23 2.09E-23 2.21E-20 7.21E-20
  -0.1667 -0.2500  0.0000    1  1.13145E-17 kpt; spin; max resid(k); each band:
  1.43E-21 1.50E-22 8.80E-23 1.06E-22 3.39E-19 1.13E-17
  -0.0833 -0.2500  0.0833    1  1.79546E-19 kpt; spin; max resid(k); each band:
  1.86E-22 1.98E-21 5.12E-23 1.35E-22 2.94E-20 1.80E-19
  -0.0833  0.5000  0.0000    1  9.35881E-21 kpt; spin; max resid(k); each band:
  4.48E-21 3.33E-22 1.25E-22 9.36E-21 7.63E-21 5.58E-21
  -0.1667 -0.4167  0.0000    1  9.03750E-19 kpt; spin; max resid(k); each band:
  1.36E-22 1.04E-20 3.32E-23 9.43E-23 8.51E-21 9.04E-19
  -0.0833 -0.4167  0.0833    1  1.01876E-19 kpt; spin; max resid(k); each band:
  2.79E-22 1.17E-21 6.25E-23 1.83E-23 1.02E-19 9.41E-20
  -0.2500 -0.3333  0.0000    1  1.84128E-18 kpt; spin; max resid(k); each band:
  4.25E-22 5.30E-20 9.77E-22 7.89E-23 2.57E-19 1.84E-18
  -0.1667 -0.3333  0.0833    1  1.08191E-18 kpt; spin; max resid(k); each band:
  1.03E-22 1.97E-21 5.81E-23 5.88E-23 3.01E-20 1.08E-18
  -0.0833 -0.3333  0.1667    1  6.25645E-18 kpt; spin; max resid(k); each band:
  2.06E-22 3.04E-20 9.88E-22 1.10E-22 6.26E-18 1.37E-19
  -0.0833  0.3333  0.0000    1  3.63331E-19 kpt; spin; max resid(k); each band:
  2.42E-22 2.66E-21 2.40E-22 6.50E-23 3.63E-19 2.27E-21
  -0.1667  0.4167  0.0000    1  9.50553E-17 kpt; spin; max resid(k); each band:
  6.53E-22 1.60E-21 3.37E-23 5.68E-22 7.41E-22 9.51E-17
  -0.2500  0.5000  0.0000    1  2.73581E-21 kpt; spin; max resid(k); each band:
  5.05E-23 1.06E-21 2.57E-23 6.24E-24 1.83E-21 2.74E-21
  -0.1667  0.5000  0.0833    1  7.80721E-20 kpt; spin; max resid(k); each band:
  1.10E-21 7.25E-22 2.17E-22 1.80E-22 1.35E-20 7.81E-20
  -0.3333 -0.4167  0.0000    1  2.91895E-21 kpt; spin; max resid(k); each band:
  2.97E-23 6.14E-22 1.54E-23 4.26E-23 2.92E-21 1.68E-21
  -0.2500 -0.4167  0.0833    1  6.19727E-21 kpt; spin; max resid(k); each band:
  8.36E-23 6.37E-22 2.55E-23 4.50E-23 6.20E-21 2.19E-21
  -0.1667 -0.4167  0.1667    1  2.96229E-19 kpt; spin; max resid(k); each band:
  8.76E-23 3.31E-22 2.71E-23 1.61E-23 1.04E-19 2.96E-19
  -0.0833 -0.4167  0.2500    1  2.33008E-19 kpt; spin; max resid(k); each band:
  1.48E-22 1.61E-21 7.12E-23 1.91E-21 2.90E-21 2.33E-19
  -0.0833  0.1667  0.0000    1  5.80091E-19 kpt; spin; max resid(k); each band:
  4.33E-23 3.45E-22 7.53E-22 9.85E-23 5.80E-19 3.17E-21
  -0.1667  0.2500  0.0000    1  1.00445E-18 kpt; spin; max resid(k); each band:
  5.81E-21 6.37E-20 1.03E-22 3.21E-22 3.46E-19 1.00E-18
  -0.2500  0.3333  0.0000    1  7.77744E-18 kpt; spin; max resid(k); each band:
  6.91E-22 9.23E-21 2.66E-21 1.09E-20 5.67E-20 7.78E-18
  -0.3333  0.4167  0.0000    1  1.21566E-21 kpt; spin; max resid(k); each band:
  7.13E-23 1.34E-22 5.12E-24 9.97E-23 1.22E-21 9.40E-22
  -0.4167  0.5000  0.0000    1  4.18192E-20 kpt; spin; max resid(k); each band:
  3.02E-21 4.99E-22 5.60E-21 5.55E-21 7.05E-21 4.18E-20
  -0.3333  0.5000  0.0833    1  9.04678E-21 kpt; spin; max resid(k); each band:
  3.35E-22 4.50E-22 1.28E-23 4.49E-23 1.88E-21 9.05E-21
  -0.2500  0.5000  0.1667    1  9.81198E-21 kpt; spin; max resid(k); each band:
  1.76E-22 1.39E-21 1.39E-23 2.80E-23 9.81E-21 4.35E-21
  -0.0833  0.0000  0.0000    1  8.08881E-07 kpt; spin; max resid(k); each band:
  3.15E-24 3.70E-21 1.28E-21 4.68E-21 1.28E-15 8.09E-07
  -0.2500  0.0000  0.0000    1  1.87891E-16 kpt; spin; max resid(k); each band:
  2.52E-24 6.03E-21 2.66E-22 1.61E-22 1.82E-21 1.88E-16
  -0.4167  0.0000  0.0000    1  5.45412E-16 kpt; spin; max resid(k); each band:
  1.68E-22 1.69E-23 1.23E-22 1.10E-22 9.65E-23 5.45E-16
 
   outwf: writing wavefunctions to: opto_WFK with iomode: IO_MODE_FORTRAN_MASTER
 WFK output completed. cpu:  0.01 [s] , wall:  0.01 [s]
 prteigrs : about to open file opto_EIG
 Fermi (or HOMO) energy (hartree) =   0.14936   Average Vxc (hartree)=  -0.33959
 Eigenvalues (hartree) for nkpt=  28  k points:
 kpt#   1, nband=  6, wtk=  0.02778, kpt= -0.0833 -0.1667  0.0000 (reduced coord)
  -0.25172    0.09216    0.12543    0.13438    0.24567    0.28451
 kpt#   2, nband=  6, wtk=  0.02778, kpt= -0.0833 -0.3333  0.0000 (reduced coord)
  -0.21849   -0.01263    0.10571    0.11003    0.25759    0.28481
 kpt#   3, nband=  6, wtk=  0.02778, kpt= -0.1667 -0.2500  0.0000 (reduced coord)
  -0.23357    0.05281    0.09831    0.10046    0.22787    0.31591
 kpt#   4, nband=  6, wtk=  0.05556, kpt= -0.0833 -0.2500  0.0833 (reduced coord)
  -0.22602    0.02114    0.07760    0.11898    0.26024    0.29749
 kpt#   5, nband=  6, wtk=  0.02778, kpt= -0.0833  0.5000  0.0000 (reduced coord)
  -0.17549   -0.08733    0.09147    0.10305    0.25190    0.28321
 kpt#   6, nband=  6, wtk=  0.02778, kpt= -0.1667 -0.4167  0.0000 (reduced coord)
  -0.19421   -0.04054    0.07010    0.08674    0.24224    0.32534
 kpt#   7, nband=  6, wtk=  0.05556, kpt= -0.0833 -0.4167  0.0833 (reduced coord)
  -0.18198   -0.06708    0.06476    0.09702    0.26759    0.28191
 kpt#   8, nband=  6, wtk=  0.02778, kpt= -0.2500 -0.3333  0.0000 (reduced coord)
  -0.20830    0.00833    0.06915    0.07568    0.21194    0.27291
 kpt#   9, nband=  6, wtk=  0.05556, kpt= -0.1667 -0.3333  0.0833 (reduced coord)
  -0.20105   -0.01311    0.05225    0.08459    0.24407    0.30713
 kpt#  10, nband=  6, wtk=  0.05556, kpt= -0.0833 -0.3333  0.1667 (reduced coord)
  -0.18642   -0.03931    0.02939    0.09378    0.27704    0.29709
 kpt#  11, nband=  6, wtk=  0.02778, kpt= -0.0833  0.3333  0.0000 (reduced coord)
  -0.20335   -0.04383    0.08889    0.11704    0.25934    0.29026
 kpt#  12, nband=  6, wtk=  0.02778, kpt= -0.1667  0.4167  0.0000 (reduced coord)
  -0.16753   -0.08251    0.04950    0.09520    0.24998    0.31794
 kpt#  13, nband=  6, wtk=  0.02778, kpt= -0.2500  0.5000  0.0000 (reduced coord)
  -0.16518   -0.06522    0.02850    0.07291    0.22393    0.33044
 kpt#  14, nband=  6, wtk=  0.05556, kpt= -0.1667  0.5000  0.0833 (reduced coord)
  -0.15944   -0.07994    0.03196    0.07563    0.25432    0.31075
 kpt#  15, nband=  6, wtk=  0.02778, kpt= -0.3333 -0.4167  0.0000 (reduced coord)
  -0.17584   -0.04075    0.04841    0.06001    0.20100    0.23767
 kpt#  16, nband=  6, wtk=  0.05556, kpt= -0.2500 -0.4167  0.0833 (reduced coord)
  -0.17031   -0.05005    0.03079    0.05807    0.23028    0.27801
 kpt#  17, nband=  6, wtk=  0.05556, kpt= -0.1667 -0.4167  0.1667 (reduced coord)
  -0.15818   -0.06526    0.01383    0.05852    0.28363    0.30391
 kpt#  18, nband=  6, wtk=  0.05556, kpt= -0.0833 -0.4167  0.2500 (reduced coord)
  -0.14432   -0.08069    0.00175    0.06574    0.24490    0.35060
 kpt#  19, nband=  6, wtk=  0.02778, kpt= -0.0833  0.1667  0.0000 (reduced coord)
  -0.24288    0.05655    0.10530    0.14106    0.27306    0.27310
 kpt#  20, nband=  6, wtk=  0.02778, kpt= -0.1667  0.2500  0.0000 (reduced coord)
  -0.21055   -0.01103    0.05145    0.11955    0.27259    0.30517
 kpt#  21, nband=  6, wtk=  0.02778, kpt= -0.2500  0.3333  0.0000 (reduced coord)
  -0.16614   -0.06286    0.01074    0.09059    0.24236    0.35556
 kpt#  22, nband=  6, wtk=  0.02778, kpt= -0.3333  0.4167  0.0000 (reduced coord)
  -0.13565   -0.08934    0.00185    0.06573    0.21300    0.31940
 kpt#  23, nband=  6, wtk=  0.02778, kpt= -0.4167  0.5000  0.0000 (reduced coord)
  -0.13593   -0.08999    0.03837    0.05204    0.19727    0.21763
 kpt#  24, nband=  6, wtk=  0.05556, kpt= -0.3333  0.5000  0.0833 (reduced coord)
  -0.13330   -0.09078    0.01807    0.04573    0.22245    0.26361
 kpt#  25, nband=  6, wtk=  0.05556, kpt= -0.2500  0.5000  0.1667 (reduced coord)
  -0.12877   -0.09151    0.00636    0.03417    0.27611    0.32239
 kpt#  26, nband=  6, wtk=  0.00926, kpt= -0.0833  0.0000  0.0000 (reduced coord)
  -0.26176    0.12730    0.14936    0.14936    0.25786    0.25800
 kpt#  27, nband=  6, wtk=  0.00926, kpt= -0.2500  0.0000  0.0000 (reduced coord)
  -0.23519    0.02047    0.12611    0.12611    0.25386    0.28666
 kpt#  28, nband=  6, wtk=  0.00926, kpt= -0.4167  0.0000  0.0000 (reduced coord)
  -0.18965   -0.07201    0.11135    0.11135    0.24025    0.28552
 Total charge density [el/Bohr^3]
      Maximum=    8.9122E-02  at reduced coord.    0.1333    0.1333    0.6000
 Next maximum=    8.9122E-02  at reduced coord.    0.1333    0.6000    0.1333
      Minimum=    3.3228E-03  at reduced coord.    0.7333    0.7333    0.7333
 Next minimum=    3.3228E-03  at reduced coord.    0.8000    0.7333    0.7333
   Integrated=    8.0000E+00
 
 Cartesian components of stress tensor (hartree/bohr^3)
  sigma(1 1)=  8.35392077E-11  sigma(3 2)=  0.00000000E+00
  sigma(2 2)=  8.35392081E-11  sigma(3 1)=  0.00000000E+00
  sigma(3 3)=  8.35392072E-11  sigma(2 1)=  0.00000000E+00
 
-Cartesian components of stress tensor (GPa)         [Pressure= -2.4578E-06 GPa]
- sigma(1 1)=  2.45780793E-06  sigma(3 2)=  0.00000000E+00
- sigma(2 2)=  2.45780794E-06  sigma(3 1)=  0.00000000E+00
- sigma(3 3)=  2.45780792E-06  sigma(2 1)=  0.00000000E+00
 
== END DATASET(S) ==============================================================
================================================================================
  
 -outvars: echo values of variables after computation  --------
 
 These variables are accessible in NetCDF format (opto_OUT.nc)

            acell      7.2950868290E+00  7.2950868290E+00  7.2950868290E+00 Bohr
              amu      2.80855000E+01
          dilatmx      1.05000000E+00
             ecut      4.00000000E+00 Hartree
           ecutsm      5.00000000E-01 Hartree
           etotal     -8.3774193263E+00
            fcart     -1.6703737110E-27  8.3518685548E-27 -1.6703737110E-27
                       1.6703737110E-27 -8.3518685548E-27  1.6703737110E-27
-          fftalg         312
           ionmov           2
              ixc          11
              kpt     -8.33333333E-02 -1.66666667E-01  0.00000000E+00
                      -8.33333333E-02 -3.33333333E-01  0.00000000E+00
                      -1.66666667E-01 -2.50000000E-01  0.00000000E+00
                      -8.33333333E-02 -2.50000000E-01  8.33333333E-02
                      -8.33333333E-02  5.00000000E-01  0.00000000E+00
                      -1.66666667E-01 -4.16666667E-01  0.00000000E+00
                      -8.33333333E-02 -4.16666667E-01  8.33333333E-02
                      -2.50000000E-01 -3.33333333E-01  0.00000000E+00
                      -1.66666667E-01 -3.33333333E-01  8.33333333E-02
                      -8.33333333E-02 -3.33333333E-01  1.66666667E-01
                      -8.33333333E-02  3.33333333E-01  0.00000000E+00
                      -1.66666667E-01  4.16666667E-01  0.00000000E+00
                      -2.50000000E-01  5.00000000E-01  0.00000000E+00
                      -1.66666667E-01  5.00000000E-01  8.33333333E-02
                      -3.33333333E-01 -4.16666667E-01  0.00000000E+00
                      -2.50000000E-01 -4.16666667E-01  8.33333333E-02
                      -1.66666667E-01 -4.16666667E-01  1.66666667E-01
                      -8.33333333E-02 -4.16666667E-01  2.50000000E-01
                      -8.33333333E-02  1.66666667E-01  0.00000000E+00
                      -1.66666667E-01  2.50000000E-01  0.00000000E+00
                      -2.50000000E-01  3.33333333E-01  0.00000000E+00
                      -3.33333333E-01  4.16666667E-01  0.00000000E+00
                      -4.16666667E-01  5.00000000E-01  0.00000000E+00
                      -3.33333333E-01  5.00000000E-01  8.33333333E-02
                      -2.50000000E-01  5.00000000E-01  1.66666667E-01
                      -8.33333333E-02  0.00000000E+00  0.00000000E+00
                      -2.50000000E-01  0.00000000E+00  0.00000000E+00
                      -4.16666667E-01  0.00000000E+00  0.00000000E+00
         kptrlatt        6   -6    6     -6    6    6     -6   -6    6
          kptrlen      6.20156511E+01
P           mkmem           5
            natom           2
            nband           6
            ngfft          15      15      15
             nkpt          28
             nsym          48
            ntime          15
           ntypat           1
              occ      2.000000  2.000000  2.000000  2.000000  0.000000  0.000000
          optcell           2
            rprim      7.0710678119E-01  7.0710678119E-01  0.0000000000E+00
                       0.0000000000E+00  7.0710678119E-01  7.0710678119E-01
                       7.0710678119E-01  0.0000000000E+00  7.0710678119E-01
           shiftk      5.00000000E-01  5.00000000E-01  5.00000000E-01
          spgroup         227
           strten      8.3539207670E-11  8.3539208103E-11  8.3539207236E-11
                       0.0000000000E+00  0.0000000000E+00  0.0000000000E+00
           symrel      1  0  0   0  1  0   0  0  1      -1  0  0   0 -1  0   0  0 -1
                       0 -1  1   0 -1  0   1 -1  0       0  1 -1   0  1  0  -1  1  0
                      -1  0  0  -1  0  1  -1  1  0       1  0  0   1  0 -1   1 -1  0
                       0  1 -1   1  0 -1   0  0 -1       0 -1  1  -1  0  1   0  0  1
                      -1  0  0  -1  1  0  -1  0  1       1  0  0   1 -1  0   1  0 -1
                       0 -1  1   1 -1  0   0 -1  0       0  1 -1  -1  1  0   0  1  0
                       1  0  0   0  0  1   0  1  0      -1  0  0   0  0 -1   0 -1  0
                       0  1 -1   0  0 -1   1  0 -1       0 -1  1   0  0  1  -1  0  1
                      -1  0  1  -1  1  0  -1  0  0       1  0 -1   1 -1  0   1  0  0
                       0 -1  0   1 -1  0   0 -1  1       0  1  0  -1  1  0   0  1 -1
                       1  0 -1   0  0 -1   0  1 -1      -1  0  1   0  0  1   0 -1  1
                       0  1  0   0  0  1   1  0  0       0 -1  0   0  0 -1  -1  0  0
                       1  0 -1   0  1 -1   0  0 -1      -1  0  1   0 -1  1   0  0  1
                       0 -1  0   0 -1  1   1 -1  0       0  1  0   0  1 -1  -1  1  0
                      -1  0  1  -1  0  0  -1  1  0       1  0 -1   1  0  0   1 -1  0
                       0  1  0   1  0  0   0  0  1       0 -1  0  -1  0  0   0  0 -1
                       0  0 -1   0  1 -1   1  0 -1       0  0  1   0 -1  1  -1  0  1
                       1 -1  0   0 -1  1   0 -1  0      -1  1  0   0  1 -1   0  1  0
                       0  0  1   1  0  0   0  1  0       0  0 -1  -1  0  0   0 -1  0
                      -1  1  0  -1  0  0  -1  0  1       1 -1  0   1  0  0   1  0 -1
                       0  0  1   0  1  0   1  0  0       0  0 -1   0 -1  0  -1  0  0
                       1 -1  0   0 -1  0   0 -1  1      -1  1  0   0  1  0   0  1 -1
                       0  0 -1   1  0 -1   0  1 -1       0  0  1  -1  0  1   0 -1  1
                      -1  1  0  -1  0  1  -1  0  0       1 -1  0   1  0 -1   1  0  0
            tnons      0.0000000  0.0000000  0.0000000     0.2500000  0.2500000  0.2500000
                       0.0000000  0.0000000  0.0000000     0.2500000  0.2500000  0.2500000
                       0.0000000  0.0000000  0.0000000     0.2500000  0.2500000  0.2500000
                       0.0000000  0.0000000  0.0000000     0.2500000  0.2500000  0.2500000
                       0.0000000  0.0000000  0.0000000     0.2500000  0.2500000  0.2500000
                       0.0000000  0.0000000  0.0000000     0.2500000  0.2500000  0.2500000
                       0.0000000  0.0000000  0.0000000     0.2500000  0.2500000  0.2500000
                       0.0000000  0.0000000  0.0000000     0.2500000  0.2500000  0.2500000
                       0.0000000  0.0000000  0.0000000     0.2500000  0.2500000  0.2500000
                       0.0000000  0.0000000  0.0000000     0.2500000  0.2500000  0.2500000
                       0.0000000  0.0000000  0.0000000     0.2500000  0.2500000  0.2500000
                       0.0000000  0.0000000  0.0000000     0.2500000  0.2500000  0.2500000
                       0.0000000  0.0000000  0.0000000     0.2500000  0.2500000  0.2500000
                       0.0000000  0.0000000  0.0000000     0.2500000  0.2500000  0.2500000
                       0.0000000  0.0000000  0.0000000     0.2500000  0.2500000  0.2500000
                       0.0000000  0.0000000  0.0000000     0.2500000  0.2500000  0.2500000
                       0.0000000  0.0000000  0.0000000     0.2500000  0.2500000  0.2500000
                       0.0000000  0.0000000  0.0000000     0.2500000  0.2500000  0.2500000
                       0.0000000  0.0000000  0.0000000     0.2500000  0.2500000  0.2500000
                       0.0000000  0.0000000  0.0000000     0.2500000  0.2500000  0.2500000
                       0.0000000  0.0000000  0.0000000     0.2500000  0.2500000  0.2500000
                       0.0000000  0.0000000  0.0000000     0.2500000  0.2500000  0.2500000
                       0.0000000  0.0000000  0.0000000     0.2500000  0.2500000  0.2500000
                       0.0000000  0.0000000  0.0000000     0.2500000  0.2500000  0.2500000
           tolmxf      1.00000000E-08
           tolvrs      1.00000000E-10
            typat      1  1
              wtk        0.02778    0.02778    0.02778    0.05556    0.02778    0.02778
                         0.05556    0.02778    0.05556    0.05556    0.02778    0.02778
                         0.02778    0.05556    0.02778    0.05556    0.05556    0.05556
                         0.02778    0.02778    0.02778    0.02778    0.02778    0.05556
                         0.05556    0.00926    0.00926    0.00926
           xangst     -2.1064293089E-26  2.2432271990E-26  1.0518189668E-26
                       1.3648552762E+00  1.3648552762E+00  1.3648552762E+00
            xcart     -3.9805745120E-26  4.2390850599E-26  1.9876497886E-26
                       2.5792026831E+00  2.5792026831E+00  2.5792026831E+00
             xred     -1.6760404795E-27  9.8938612188E-27 -6.0406359534E-27
                       2.5000000000E-01  2.5000000000E-01  2.5000000000E-01
            znucl       14.00000
 
================================================================================
  

================================================================================

 Suggested references for the acknowledgment of ABINIT usage.

 The users of ABINIT have little formal obligations with respect to the ABINIT group
 (those specified in the GNU General Public License, http://www.gnu.org/copyleft/gpl.txt).
 However, it is common practice in the scientific literature,
 to acknowledge the efforts of people that have made the research possible.
 In this spirit, please find below suggested citations of work written by ABINIT developers,
 corresponding to implementations inside of ABINIT that you have used in the present run.
 Note also that it will be of great value to readers of publications presenting these results,
 to read papers enabling them to understand the theoretical formalism and details
 of the ABINIT implementation.
 For information on why they are suggested, see also https://docs.abinit.org/theory/acknowledgments.
-
- [1] Recent developments in the ABINIT software package.
- Computer Phys. Comm. 205, 106 (2016).
- X.Gonze, F.Jollet, F.Abreu Araujo, D.Adams, B.Amadon, T.Applencourt,
- C.Audouze, J.-M.Beuken, J.Bieder, A.Bokhanchuk, E.Bousquet, F.Bruneval
- D.Caliste, M.Cote, F.Dahm, F.Da Pieve, M.Delaveau, M.Di Gennaro,
- B.Dorado, C.Espejo, G.Geneste, L.Genovese, A.Gerossier, M.Giantomassi,
- Y.Gillet, D.R.Hamann, L.He, G.Jomard, J.Laflamme Janssen, S.Le Roux,
- A.Levitt, A.Lherbier, F.Liu, I.Lukacevic, A.Martin, C.Martins,
- M.J.T.Oliveira, S.Ponce, Y.Pouillon, T.Rangel, G.-M.Rignanese,
- A.H.Romero, B.Rousseau, O.Rubel, A.A.Shukri, M.Stankovski, M.Torrent,
- M.J.Van Setten, B.Van Troeye, M.J.Verstraete, D.Waroquier, J.Wiktor,
- B.Xu, A.Zhou, J.W.Zwanziger.
- Comment: the fourth generic paper describing the ABINIT project.
- Note that a version of this paper, that is not formatted for Computer Phys. Comm. 
- is available at https://www.abinit.org/about/ABINIT16.pdf .
- The licence allows the authors to put it on the Web.
- DOI and bibtex: see https://docs.abinit.org/theory/bibliography/#gonze2016
-
- [2] Optimized norm-conserving Vanderbilt pseudopotentials.
- D.R. Hamann, Phys. Rev. B 88, 085117 (2013).
- Comment: Some pseudopotential generated using the ONCVPSP code were used.
- DOI and bibtex: see https://docs.abinit.org/theory/bibliography/#hamann2013
-
- [3] ABINIT: First-principles approach of materials and nanosystem properties.
- Computer Phys. Comm. 180, 2582-2615 (2009).
- X. Gonze, B. Amadon, P.-M. Anglade, J.-M. Beuken, F. Bottin, P. Boulanger, F. Bruneval,
- D. Caliste, R. Caracas, M. Cote, T. Deutsch, L. Genovese, Ph. Ghosez, M. Giantomassi
- S. Goedecker, D.R. Hamann, P. Hermet, F. Jollet, G. Jomard, S. Leroux, M. Mancini, S. Mazevet,
- M.J.T. Oliveira, G. Onida, Y. Pouillon, T. Rangel, G.-M. Rignanese, D. Sangalli, R. Shaltaf,
- M. Torrent, M.J. Verstraete, G. Zerah, J.W. Zwanziger
- Comment: the third generic paper describing the ABINIT project.
- Note that a version of this paper, that is not formatted for Computer Phys. Comm. 
- is available at https://www.abinit.org/about/ABINIT_CPC_v10.pdf .
- The licence allows the authors to put it on the Web.
- DOI and bibtex: see https://docs.abinit.org/theory/bibliography/#gonze2009
-
- [4] A brief introduction to the ABINIT software package.
- Z. Kristallogr. 220, 558-562 (2005).
- X. Gonze, G.-M. Rignanese, M. Verstraete, J.-M. Beuken, Y. Pouillon, R. Caracas, F. Jollet,
- M. Torrent, G. Zerah, M. Mikami, Ph. Ghosez, M. Veithen, J.-Y. Raty, V. Olevano, F. Bruneval,
- L. Reining, R. Godby, G. Onida, D.R. Hamann, and D.C. Allan.
- Comment: the second generic paper describing the ABINIT project. Note that this paper
- should be cited especially if you are using the GW part of ABINIT, as several authors
- of this part are not in the list of authors of the first or third paper.
- The .pdf of the latter paper is available at https://www.abinit.org/about/zfk_0505-06_558-562.pdf.
- Note that it should not redistributed (Copyright by Oldenburg Wissenshaftverlag,
- the licence allows the authors to put it on the Web).
- DOI and bibtex: see https://docs.abinit.org/theory/bibliography/#gonze2005
-
- And optionally:
-
- [5] First-principles computation of material properties: the ABINIT software project. 
- X. Gonze, J.-M. Beuken, R. Caracas, F. Detraux, M. Fuchs, G.-M. Rignanese, L. Sindic,
- M. Verstraete, G. Zerah, F. Jollet, M. Torrent, A. Roy, M. Mikami, Ph. Ghosez, J.-Y. Raty, D.C. Allan.
- Computational Materials Science 25, 478-492 (2002). http://dx.doi.org/10.1016/S0927-0256(02)00325-7
- Comment: the original paper describing the ABINIT project.
- DOI and bibtex : see https://docs.abinit.org/theory/bibliography/#gonze2002
 Proc.   0 individual time (sec): cpu=          4.6  wall=          7.5
 
 Calculation completed.
.Delivered   0 WARNINGs and   0 COMMENTs to log file.

--- !FinalSummary
program: abinit
version: 8.11.13
start_datetime: Fri Jan 10 11:50:32 2020
end_datetime: Fri Jan 10 11:50:40 2020
overall_cpu_time:          32.1
overall_wall_time:          45.2
exit_requested_by_user: no 
timelimit: 0
pseudos: 
    Si  : 45c393525680abc7b25445b8ec62bf83
usepaw: 0
mpi_procs: 6
omp_threads: 1
num_warnings: 0
num_comments: 0
...
