CRYSTAL
# Primitive lattice vectors in Angstrom
PRIMVEC 1
 5.29177210670000 0.00000000000000 0.00000000000000
 0.00000000000000 5.29177210670000 0.00000000000000
 0.00000000000000 0.00000000000000 5.29177210670000
# Cartesian coordinates in Angstrom.
PRIMCOORD 1
 2 1
  1    -0.40270385731987     0.00000000000000     0.00000000000000
  1     0.40270385731987     0.00000000000000     0.00000000000000
BEGIN_BLOCK_DATAGRID_3D
 data
 BEGIN_DATAGRID_3Dgrid#1
31 31 31
0.000000 0.000000 0.000000
5.291772 0.000000 0.000000
0.000000 5.291772 0.000000
0.000000 0.000000 5.291772
1.578083 1.562051 1.437120 1.106479 0.662916 0.312395 0.131993 0.061352 0.032833 0.017074 0.007955 0.004004 0.002625 0.001857 0.001186 0.000913 0.001186 0.001857 0.002625 0.004004 0.007955 0.017074 0.032833 0.061352 0.131993 0.312395 0.662916 1.106479 1.437120 1.562051 1.578083
1.343222 1.329856 1.224710 0.945935 0.571627 0.274666 0.119919 0.057546 0.031110 0.016068 0.007442 0.003758 0.002469 0.001735 0.001097 0.000840 0.001097 0.001735 0.002469 0.003758 0.007442 0.016068 0.031110 0.057546 0.119919 0.274666 0.571627 0.945935 1.224710 1.329856 1.343222
0.852744 0.843886 0.777945 0.606274 0.376802 0.192638 0.092596 0.048309 0.026712 0.013590 0.006279 0.003246 0.002151 0.001485 0.000924 0.000706 0.000924 0.001485 0.002151 0.003246 0.006279 0.013590 0.026712 0.048309 0.092596 0.192638 0.376802 0.606274 0.777945 0.843886 0.852744
0.445103 0.438538 0.402118 0.317101 0.207288 0.117770 0.065047 0.037373 0.021002 0.010593 0.005066 0.002792 0.001872 0.001264 0.000798 0.000626 0.000798 0.001264 0.001872 0.002792 0.005066 0.010593 0.021002 0.037373 0.065047 0.117770 0.207288 0.317101 0.402118 0.438538 0.445103
0.223515 0.217679 0.195912 0.155780 0.108640 0.069776 0.043758 0.026670 0.014939 0.007662 0.004020 0.002427 0.001614 0.001060 0.000714 0.000600 0.000714 0.001060 0.001614 0.002427 0.004020 0.007662 0.014939 0.026670 0.043758 0.069776 0.108640 0.155780 0.195912 0.217679 0.223515
0.119871 0.115045 0.100968 0.080547 0.059448 0.041806 0.027965 0.017111 0.009480 0.005174 0.003113 0.002013 0.001260 0.000796 0.000603 0.000561 0.000603 0.000796 0.001260 0.002013 0.003113 0.005174 0.009480 0.017111 0.027965 0.041806 0.059448 0.080547 0.100968 0.115045 0.119871
0.064596 0.061566 0.053530 0.043187 0.033163 0.024344 0.016461 0.009905 0.005594 0.003427 0.002358 0.001530 0.000847 0.000514 0.000467 0.000493 0.000467 0.000514 0.000847 0.001530 0.002358 0.003427 0.005594 0.009905 0.016461 0.024344 0.033163 0.043187 0.053530 0.061566 0.064596
0.031389 0.030144 0.026792 0.022334 0.017737 0.013299 0.009062 0.005566 0.003405 0.002373 0.001748 0.001067 0.000514 0.000313 0.000357 0.000424 0.000357 0.000313 0.000514 0.001067 0.001748 0.002373 0.003405 0.005566 0.009062 0.013299 0.017737 0.022334 0.026792 0.030144 0.031389
0.014309 0.014029 0.013063 0.011356 0.009219 0.007019 0.004963 0.003295 0.002229 0.001649 0.001191 0.000678 0.000311 0.000209 0.000280 0.000350 0.000280 0.000209 0.000311 0.000678 0.001191 0.001649 0.002229 0.003295 0.004963 0.007019 0.009219 0.011356 0.013063 0.014029 0.014309
0.007349 0.007354 0.007099 0.006238 0.004971 0.003765 0.002798 0.002021 0.001426 0.001007 0.000677 0.000388 0.000204 0.000157 0.000205 0.000247 0.000205 0.000157 0.000204 0.000388 0.000677 0.001007 0.001426 0.002021 0.002798 0.003765 0.004971 0.006238 0.007099 0.007354 0.007349
0.004384 0.004428 0.004305 0.003690 0.002799 0.002076 0.001608 0.001221 0.000835 0.000527 0.000338 0.000227 0.000160 0.000130 0.000131 0.000137 0.000131 0.000130 0.000160 0.000227 0.000338 0.000527 0.000835 0.001221 0.001608 0.002076 0.002799 0.003690 0.004305 0.004428 0.004384
0.002445 0.002491 0.002450 0.002092 0.001571 0.001189 0.000973 0.000766 0.000508 0.000302 0.000206 0.000177 0.000154 0.000116 0.000082 0.000070 0.000082 0.000116 0.000154 0.000177 0.000206 0.000302 0.000508 0.000766 0.000973 0.001189 0.001571 0.002092 0.002450 0.002491 0.002445
0.001164 0.001205 0.001232 0.001108 0.000893 0.000736 0.000645 0.000528 0.000366 0.000239 0.000185 0.000170 0.000144 0.000099 0.000062 0.000049 0.000062 0.000099 0.000144 0.000170 0.000185 0.000239 0.000366 0.000528 0.000645 0.000736 0.000893 0.001108 0.001232 0.001205 0.001164
0.000651 0.000673 0.000695 0.000653 0.000567 0.000492 0.000432 0.000355 0.000268 0.000204 0.000166 0.000131 0.000092 0.000064 0.000053 0.000052 0.000053 0.000064 0.000092 0.000131 0.000166 0.000204 0.000268 0.000355 0.000432 0.000492 0.000567 0.000653 0.000695 0.000673 0.000651
0.000597 0.000594 0.000570 0.000511 0.000432 0.000353 0.000278 0.000213 0.000171 0.000148 0.000118 0.000069 0.000033 0.000028 0.000045 0.000059 0.000045 0.000028 0.000033 0.000069 0.000118 0.000148 0.000171 0.000213 0.000278 0.000353 0.000432 0.000511 0.000570 0.000594 0.000597
0.000639 0.000622 0.000570 0.000488 0.000396 0.000304 0.000220 0.000158 0.000130 0.000120 0.000092 0.000044 0.000015 0.000016 0.000041 0.000062 0.000041 0.000016 0.000015 0.000044 0.000092 0.000120 0.000130 0.000158 0.000220 0.000304 0.000396 0.000488 0.000570 0.000622 0.000639
0.000597 0.000594 0.000570 0.000511 0.000432 0.000353 0.000278 0.000213 0.000171 0.000148 0.000118 0.000069 0.000033 0.000028 0.000045 0.000059 0.000045 0.000028 0.000033 0.000069 0.000118 0.000148 0.000171 0.000213 0.000278 0.000353 0.000432 0.000511 0.000570 0.000594 0.000597
0.000651 0.000673 0.000695 0.000653 0.000567 0.000492 0.000432 0.000355 0.000268 0.000204 0.000166 0.000131 0.000092 0.000064 0.000053 0.000052 0.000053 0.000064 0.000092 0.000131 0.000166 0.000204 0.000268 0.000355 0.000432 0.000492 0.000567 0.000653 0.000695 0.000673 0.000651
0.001164 0.001205 0.001232 0.001108 0.000893 0.000736 0.000645 0.000528 0.000366 0.000239 0.000185 0.000170 0.000144 0.000099 0.000062 0.000049 0.000062 0.000099 0.000144 0.000170 0.000185 0.000239 0.000366 0.000528 0.000645 0.000736 0.000893 0.001108 0.001232 0.001205 0.001164
0.002445 0.002491 0.002450 0.002092 0.001571 0.001189 0.000973 0.000766 0.000508 0.000302 0.000206 0.000177 0.000154 0.000116 0.000082 0.000070 0.000082 0.000116 0.000154 0.000177 0.000206 0.000302 0.000508 0.000766 0.000973 0.001189 0.001571 0.002092 0.002450 0.002491 0.002445
0.004384 0.004428 0.004305 0.003690 0.002799 0.002076 0.001608 0.001221 0.000835 0.000527 0.000338 0.000227 0.000160 0.000130 0.000131 0.000137 0.000131 0.000130 0.000160 0.000227 0.000338 0.000527 0.000835 0.001221 0.001608 0.002076 0.002799 0.003690 0.004305 0.004428 0.004384
0.007349 0.007354 0.007099 0.006238 0.004971 0.003765 0.002798 0.002021 0.001426 0.001007 0.000677 0.000388 0.000204 0.000157 0.000205 0.000247 0.000205 0.000157 0.000204 0.000388 0.000677 0.001007 0.001426 0.002021 0.002798 0.003765 0.004971 0.006238 0.007099 0.007354 0.007349
0.014309 0.014029 0.013063 0.011356 0.009219 0.007019 0.004963 0.003295 0.002229 0.001649 0.001191 0.000678 0.000311 0.000209 0.000280 0.000350 0.000280 0.000209 0.000311 0.000678 0.001191 0.001649 0.002229 0.003295 0.004963 0.007019 0.009219 0.011356 0.013063 0.014029 0.014309
0.031389 0.030144 0.026792 0.022334 0.017737 0.013299 0.009062 0.005566 0.003405 0.002373 0.001748 0.001067 0.000514 0.000313 0.000357 0.000424 0.000357 0.000313 0.000514 0.001067 0.001748 0.002373 0.003405 0.005566 0.009062 0.013299 0.017737 0.022334 0.026792 0.030144 0.031389
0.064596 0.061566 0.053530 0.043187 0.033163 0.024344 0.016461 0.009905 0.005594 0.003427 0.002358 0.001530 0.000847 0.000514 0.000467 0.000493 0.000467 0.000514 0.000847 0.001530 0.002358 0.003427 0.005594 0.009905 0.016461 0.024344 0.033163 0.043187 0.053530 0.061566 0.064596
0.119871 0.115045 0.100968 0.080547 0.059448 0.041806 0.027965 0.017111 0.009480 0.005174 0.003113 0.002013 0.001260 0.000796 0.000603 0.000561 0.000603 0.000796 0.001260 0.002013 0.003113 0.005174 0.009480 0.017111 0.027965 0.041806 0.059448 0.080547 0.100968 0.115045 0.119871
0.223515 0.217679 0.195912 0.155780 0.108640 0.069776 0.043758 0.026670 0.014939 0.007662 0.004020 0.002427 0.001614 0.001060 0.000714 0.000600 0.000714 0.001060 0.001614 0.002427 0.004020 0.007662 0.014939 0.026670 0.043758 0.069776 0.108640 0.155780 0.195912 0.217679 0.223515
0.445103 0.438538 0.402118 0.317101 0.207288 0.117770 0.065047 0.037373 0.021002 0.010593 0.005066 0.002792 0.001872 0.001264 0.000798 0.000626 0.000798 0.001264 0.001872 0.002792 0.005066 0.010593 0.021002 0.037373 0.065047 0.117770 0.207288 0.317101 0.402118 0.438538 0.445103
0.852744 0.843886 0.777945 0.606274 0.376802 0.192638 0.092596 0.048309 0.026712 0.013590 0.006279 0.003246 0.002151 0.001485 0.000924 0.000706 0.000924 0.001485 0.002151 0.003246 0.006279 0.013590 0.026712 0.048309 0.092596 0.192638 0.376802 0.606274 0.777945 0.843886 0.852744
1.343222 1.329856 1.224710 0.945935 0.571627 0.274666 0.119919 0.057546 0.031110 0.016068 0.007442 0.003758 0.002469 0.001735 0.001097 0.000840 0.001097 0.001735 0.002469 0.003758 0.007442 0.016068 0.031110 0.057546 0.119919 0.274666 0.571627 0.945935 1.224710 1.329856 1.343222
1.578083 1.562051 1.437120 1.106479 0.662916 0.312395 0.131993 0.061352 0.032833 0.017074 0.007955 0.004004 0.002625 0.001857 0.001186 0.000913 0.001186 0.001857 0.002625 0.004004 0.007955 0.017074 0.032833 0.061352 0.131993 0.312395 0.662916 1.106479 1.437120 1.562051 1.578083

1.343222 1.329856 1.224710 0.945935 0.571627 0.274666 0.119919 0.057546 0.031110 0.016068 0.007442 0.003758 0.002469 0.001735 0.001097 0.000840 0.001097 0.001735 0.002469 0.003758 0.007442 0.016068 0.031110 0.057546 0.119919 0.274666 0.571627 0.945935 1.224710 1.329856 1.343222
1.148394 1.137076 1.047994 0.811972 0.495024 0.242587 0.109346 0.054037 0.029466 0.015129 0.006985 0.003548 0.002339 0.001634 0.001026 0.000783 0.001026 0.001634 0.002339 0.003548 0.006985 0.015129 0.029466 0.054037 0.109346 0.242587 0.495024 0.811972 1.047994 1.137076 1.148394
0.739867 0.731989 0.674869 0.527445 0.330844 0.172490 0.085278 0.045483 0.025272 0.012815 0.005941 0.003108 0.002071 0.001426 0.000889 0.000680 0.000889 0.001426 0.002071 0.003108 0.005941 0.012815 0.025272 0.045483 0.085278 0.172490 0.330844 0.527445 0.674869 0.731989 0.739867
0.396639 0.390493 0.357747 0.282718 0.186417 0.107699 0.060661 0.035254 0.019828 0.010004 0.004832 0.002703 0.001822 0.001230 0.000783 0.000619 0.000783 0.001230 0.001822 0.002703 0.004832 0.010004 0.019828 0.035254 0.060661 0.107699 0.186417 0.282718 0.357747 0.390493 0.396639
0.205714 0.200176 0.179941 0.143250 0.100476 0.065139 0.041171 0.025138 0.014059 0.007235 0.003842 0.002346 0.001561 0.001026 0.000697 0.000591 0.000697 0.001026 0.001561 0.002346 0.003842 0.007235 0.014059 0.025138 0.041171 0.065139 0.100476 0.143250 0.179941 0.200176 0.205714
0.112730 0.108180 0.094945 0.075803 0.056041 0.039462 0.026372 0.016084 0.008892 0.004872 0.002958 0.001923 0.001201 0.000758 0.000580 0.000543 0.000580 0.000758 0.001201 0.001923 0.002958 0.004872 0.008892 0.016084 0.026372 0.039462 0.056041 0.075803 0.094945 0.108180 0.112730
0.061051 0.058228 0.050705 0.040949 0.031428 0.023024 0.015525 0.009314 0.005252 0.003222 0.002226 0.001450 0.000804 0.000489 0.000446 0.000472 0.000446 0.000489 0.000804 0.001450 0.002226 0.003222 0.005252 0.009314 0.015525 0.023024 0.031428 0.040949 0.050705 0.058228 0.061051
0.029650 0.028498 0.025369 0.021162 0.016798 0.012597 0.008597 0.005290 0.003232 0.002246 0.001658 0.001024 0.000504 0.000310 0.000348 0.000410 0.000348 0.000310 0.000504 0.001024 0.001658 0.002246 0.003232 0.005290 0.008597 0.012597 0.016798 0.021162 0.025369 0.028498 0.029650
0.013578 0.013310 0.012382 0.010752 0.008736 0.006690 0.004777 0.003195 0.002158 0.001587 0.001153 0.000678 0.000328 0.000222 0.000283 0.000346 0.000283 0.000222 0.000328 0.000678 0.001153 0.001587 0.002158 0.003195 0.004777 0.006690 0.008736 0.010752 0.012382 0.013310 0.013578
0.007008 0.006997 0.006721 0.005883 0.004699 0.003604 0.002727 0.001994 0.001406 0.000988 0.000676 0.000409 0.000230 0.000177 0.000213 0.000247 0.000213 0.000177 0.000230 0.000409 0.000676 0.000988 0.001406 0.001994 0.002727 0.003604 0.004699 0.005883 0.006721 0.006997 0.007008
0.004151 0.004178 0.004030 0.003435 0.002616 0.001974 0.001565 0.001206 0.000826 0.000522 0.000345 0.000246 0.000182 0.000146 0.000136 0.000137 0.000136 0.000146 0.000182 0.000246 0.000345 0.000522 0.000826 0.001206 0.001565 0.001974 0.002616 0.003435 0.004030 0.004178 0.004151
0.002288 0.002322 0.002263 0.001920 0.001449 0.001118 0.000937 0.000746 0.000494 0.000295 0.000208 0.000187 0.000167 0.000125 0.000085 0.000070 0.000085 0.000125 0.000167 0.000187 0.000208 0.000295 0.000494 0.000746 0.000937 0.001118 0.001449 0.001920 0.002263 0.002322 0.002288
0.001096 0.001128 0.001141 0.001021 0.000831 0.000698 0.000621 0.000510 0.000352 0.000230 0.000182 0.000173 0.000152 0.000106 0.000066 0.000052 0.000066 0.000106 0.000152 0.000173 0.000182 0.000230 0.000352 0.000510 0.000621 0.000698 0.000831 0.001021 0.001141 0.001128 0.001096
0.000636 0.000652 0.000663 0.000622 0.000548 0.000486 0.000430 0.000350 0.000262 0.000200 0.000168 0.000138 0.000101 0.000073 0.000061 0.000059 0.000061 0.000073 0.000101 0.000138 0.000168 0.000200 0.000262 0.000350 0.000430 0.000486 0.000548 0.000622 0.000663 0.000652 0.000636
0.000602 0.000594 0.000563 0.000505 0.000436 0.000366 0.000292 0.000221 0.000175 0.000153 0.000128 0.000082 0.000045 0.000039 0.000058 0.000073 0.000058 0.000039 0.000045 0.000082 0.000128 0.000153 0.000175 0.000221 0.000292 0.000366 0.000436 0.000505 0.000563 0.000594 0.000602
0.000650 0.000628 0.000568 0.000489 0.000407 0.000324 0.000239 0.000170 0.000137 0.000128 0.000105 0.000058 0.000026 0.000026 0.000055 0.000078 0.000055 0.000026 0.000026 0.000058 0.000105 0.000128 0.000137 0.000170 0.000239 0.000324 0.000407 0.000489 0.000568 0.000628 0.000650
0.000602 0.000594 0.000563 0.000505 0.000436 0.000366 0.000292 0.000221 0.000175 0.000153 0.000128 0.000082 0.000045 0.000039 0.000058 0.000073 0.000058 0.000039 0.000045 0.000082 0.000128 0.000153 0.000175 0.000221 0.000292 0.000366 0.000436 0.000505 0.000563 0.000594 0.000602
0.000636 0.000652 0.000663 0.000622 0.000548 0.000486 0.000430 0.000350 0.000262 0.000200 0.000168 0.000138 0.000101 0.000073 0.000061 0.000059 0.000061 0.000073 0.000101 0.000138 0.000168 0.000200 0.000262 0.000350 0.000430 0.000486 0.000548 0.000622 0.000663 0.000652 0.000636
0.001096 0.001128 0.001141 0.001021 0.000831 0.000698 0.000621 0.000510 0.000352 0.000230 0.000182 0.000173 0.000152 0.000106 0.000066 0.000052 0.000066 0.000106 0.000152 0.000173 0.000182 0.000230 0.000352 0.000510 0.000621 0.000698 0.000831 0.001021 0.001141 0.001128 0.001096
0.002288 0.002322 0.002263 0.001920 0.001449 0.001118 0.000937 0.000746 0.000494 0.000295 0.000208 0.000187 0.000167 0.000125 0.000085 0.000070 0.000085 0.000125 0.000167 0.000187 0.000208 0.000295 0.000494 0.000746 0.000937 0.001118 0.001449 0.001920 0.002263 0.002322 0.002288
0.004151 0.004178 0.004030 0.003435 0.002616 0.001974 0.001565 0.001206 0.000826 0.000522 0.000345 0.000246 0.000182 0.000146 0.000136 0.000137 0.000136 0.000146 0.000182 0.000246 0.000345 0.000522 0.000826 0.001206 0.001565 0.001974 0.002616 0.003435 0.004030 0.004178 0.004151
0.007008 0.006997 0.006721 0.005883 0.004699 0.003604 0.002727 0.001994 0.001406 0.000988 0.000676 0.000409 0.000230 0.000177 0.000213 0.000247 0.000213 0.000177 0.000230 0.000409 0.000676 0.000988 0.001406 0.001994 0.002727 0.003604 0.004699 0.005883 0.006721 0.006997 0.007008
0.013578 0.013310 0.012382 0.010752 0.008736 0.006690 0.004777 0.003195 0.002158 0.001587 0.001153 0.000678 0.000328 0.000222 0.000283 0.000346 0.000283 0.000222 0.000328 0.000678 0.001153 0.001587 0.002158 0.003195 0.004777 0.006690 0.008736 0.010752 0.012382 0.013310 0.013578
0.029650 0.028498 0.025369 0.021162 0.016798 0.012597 0.008597 0.005290 0.003232 0.002246 0.001658 0.001024 0.000504 0.000310 0.000348 0.000410 0.000348 0.000310 0.000504 0.001024 0.001658 0.002246 0.003232 0.005290 0.008597 0.012597 0.016798 0.021162 0.025369 0.028498 0.029650
0.061051 0.058228 0.050705 0.040949 0.031428 0.023024 0.015525 0.009314 0.005252 0.003222 0.002226 0.001450 0.000804 0.000489 0.000446 0.000472 0.000446 0.000489 0.000804 0.001450 0.002226 0.003222 0.005252 0.009314 0.015525 0.023024 0.031428 0.040949 0.050705 0.058228 0.061051
0.112730 0.108180 0.094945 0.075803 0.056041 0.039462 0.026372 0.016084 0.008892 0.004872 0.002958 0.001923 0.001201 0.000758 0.000580 0.000543 0.000580 0.000758 0.001201 0.001923 0.002958 0.004872 0.008892 0.016084 0.026372 0.039462 0.056041 0.075803 0.094945 0.108180 0.112730
0.205714 0.200176 0.179941 0.143250 0.100476 0.065139 0.041171 0.025138 0.014059 0.007235 0.003842 0.002346 0.001561 0.001026 0.000697 0.000591 0.000697 0.001026 0.001561 0.002346 0.003842 0.007235 0.014059 0.025138 0.041171 0.065139 0.100476 0.143250 0.179941 0.200176 0.205714
0.396639 0.390493 0.357747 0.282718 0.186417 0.107699 0.060661 0.035254 0.019828 0.010004 0.004832 0.002703 0.001822 0.001230 0.000783 0.000619 0.000783 0.001230 0.001822 0.002703 0.004832 0.010004 0.019828 0.035254 0.060661 0.107699 0.186417 0.282718 0.357747 0.390493 0.396639
0.739867 0.731989 0.674869 0.527445 0.330844 0.172490 0.085278 0.045483 0.025272 0.012815 0.005941 0.003108 0.002071 0.001426 0.000889 0.000680 0.000889 0.001426 0.002071 0.003108 0.005941 0.012815 0.025272 0.045483 0.085278 0.172490 0.330844 0.527445 0.674869 0.731989 0.739867
1.148394 1.137076 1.047994 0.811972 0.495024 0.242587 0.109346 0.054037 0.029466 0.015129 0.006985 0.003548 0.002339 0.001634 0.001026 0.000783 0.001026 0.001634 0.002339 0.003548 0.006985 0.015129 0.029466 0.054037 0.109346 0.242587 0.495024 0.811972 1.047994 1.137076 1.148394
1.343222 1.329856 1.224710 0.945935 0.571627 0.274666 0.119919 0.057546 0.031110 0.016068 0.007442 0.003758 0.002469 0.001735 0.001097 0.000840 0.001097 0.001735 0.002469 0.003758 0.007442 0.016068 0.031110 0.057546 0.119919 0.274666 0.571627 0.945935 1.224710 1.329856 1.343222

0.852744 0.843886 0.777945 0.606274 0.376802 0.192638 0.092596 0.048309 0.026712 0.013590 0.006279 0.003246 0.002151 0.001485 0.000924 0.000706 0.000924 0.001485 0.002151 0.003246 0.006279 0.013590 0.026712 0.048309 0.092596 0.192638 0.376802 0.606274 0.777945 0.843886 0.852744
0.739867 0.731989 0.674869 0.527445 0.330844 0.172490 0.085278 0.045483 0.025272 0.012815 0.005941 0.003108 0.002071 0.001426 0.000889 0.000680 0.000889 0.001426 0.002071 0.003108 0.005941 0.012815 0.025272 0.045483 0.085278 0.172490 0.330844 0.527445 0.674869 0.731989 0.739867
0.499607 0.493384 0.454139 0.357666 0.230869 0.127718 0.068317 0.038517 0.021616 0.010909 0.005161 0.002811 0.001898 0.001297 0.000817 0.000635 0.000817 0.001297 0.001898 0.002811 0.005161 0.010909 0.021616 0.038517 0.068317 0.127718 0.230869 0.357666 0.454139 0.493384 0.499607
0.289890 0.284563 0.259673 0.206365 0.139581 0.084591 0.050205 0.030000 0.016906 0.008584 0.004298 0.002506 0.001700 0.001143 0.000747 0.000605 0.000747 0.001143 0.001700 0.002506 0.004298 0.008584 0.016906 0.030000 0.050205 0.084591 0.139581 0.206365 0.259673 0.284563 0.289890
0.163879 0.159079 0.142501 0.113848 0.081172 0.053998 0.034843 0.021385 0.011954 0.006254 0.003453 0.002164 0.001431 0.000936 0.000656 0.000571 0.000656 0.000936 0.001431 0.002164 0.003453 0.006254 0.011954 0.021385 0.034843 0.053998 0.081172 0.113848 0.142501 0.159079 0.163879
0.094455 0.090657 0.079664 0.063835 0.047475 0.033599 0.022453 0.013641 0.007558 0.004222 0.002632 0.001723 0.001060 0.000667 0.000525 0.000502 0.000525 0.000667 0.001060 0.001723 0.002632 0.004222 0.007558 0.013641 0.022453 0.033599 0.047475 0.063835 0.079664 0.090657 0.094455
0.051623 0.049368 0.043250 0.035100 0.026961 0.019700 0.013246 0.007948 0.004505 0.002791 0.001944 0.001268 0.000702 0.000429 0.000397 0.000424 0.000397 0.000429 0.000702 0.001268 0.001944 0.002791 0.004505 0.007948 0.013246 0.019700 0.026961 0.035100 0.043250 0.049368 0.051623
0.025158 0.024256 0.021730 0.018197 0.014451 0.010862 0.007477 0.004652 0.002849 0.001964 0.001448 0.000914 0.000470 0.000296 0.000321 0.000370 0.000321 0.000296 0.000470 0.000914 0.001448 0.001964 0.002849 0.004652 0.007477 0.010862 0.014451 0.018197 0.021730 0.024256 0.025158
0.011824 0.011594 0.010781 0.009340 0.007601 0.005902 0.004322 0.002950 0.001981 0.001425 0.001041 0.000654 0.000352 0.000244 0.000276 0.000319 0.000276 0.000244 0.000352 0.000654 0.001041 0.001425 0.001981 0.002950 0.004322 0.005902 0.007601 0.009340 0.010781 0.011594 0.011824
0.006271 0.006232 0.005919 0.005129 0.004112 0.003239 0.002549 0.001908 0.001331 0.000916 0.000645 0.000435 0.000280 0.000211 0.000214 0.000229 0.000214 0.000211 0.000280 0.000435 0.000645 0.000916 0.001331 0.001908 0.002549 0.003239 0.004112 0.005129 0.005919 0.006232 0.006271
0.003678 0.003672 0.003480 0.002926 0.002244 0.001757 0.001459 0.001152 0.000783 0.000491 0.000340 0.000272 0.000220 0.000170 0.000135 0.000124 0.000135 0.000170 0.000220 0.000272 0.000340 0.000491 0.000783 0.001152 0.001459 0.001757 0.002244 0.002926 0.003480 0.003672 0.003678
0.001980 0.001990 0.001901 0.001591 0.001214 0.000973 0.000850 0.000688 0.000452 0.000269 0.000197 0.000192 0.000180 0.000131 0.000081 0.000063 0.000081 0.000131 0.000180 0.000192 0.000197 0.000269 0.000452 0.000688 0.000850 0.000973 0.001214 0.001591 0.001901 0.001990 0.001980
0.000969 0.000985 0.000971 0.000860 0.000712 0.000619 0.000563 0.000461 0.000311 0.000202 0.000165 0.000165 0.000150 0.000105 0.000064 0.000049 0.000064 0.000105 0.000150 0.000165 0.000165 0.000202 0.000311 0.000461 0.000563 0.000619 0.000712 0.000860 0.000971 0.000985 0.000969
0.000609 0.000612 0.000601 0.000559 0.000507 0.000465 0.000414 0.000328 0.000238 0.000182 0.000159 0.000139 0.000108 0.000081 0.000068 0.000065 0.000068 0.000081 0.000108 0.000139 0.000159 0.000182 0.000238 0.000328 0.000414 0.000465 0.000507 0.000559 0.000601 0.000612 0.000609
0.000603 0.000583 0.000533 0.000478 0.000432 0.000382 0.000309 0.000227 0.000173 0.000154 0.000139 0.000101 0.000065 0.000057 0.000075 0.000090 0.000075 0.000057 0.000065 0.000101 0.000139 0.000154 0.000173 0.000227 0.000309 0.000382 0.000432 0.000478 0.000533 0.000583 0.000603
0.000652 0.000619 0.000543 0.000469 0.000413 0.000351 0.000267 0.000186 0.000144 0.000138 0.000124 0.000083 0.000047 0.000047 0.000077 0.000101 0.000077 0.000047 0.000047 0.000083 0.000124 0.000138 0.000144 0.000186 0.000267 0.000351 0.000413 0.000469 0.000543 0.000619 0.000652
0.000603 0.000583 0.000533 0.000478 0.000432 0.000382 0.000309 0.000227 0.000173 0.000154 0.000139 0.000101 0.000065 0.000057 0.000075 0.000090 0.000075 0.000057 0.000065 0.000101 0.000139 0.000154 0.000173 0.000227 0.000309 0.000382 0.000432 0.000478 0.000533 0.000583 0.000603
0.000609 0.000612 0.000601 0.000559 0.000507 0.000465 0.000414 0.000328 0.000238 0.000182 0.000159 0.000139 0.000108 0.000081 0.000068 0.000065 0.000068 0.000081 0.000108 0.000139 0.000159 0.000182 0.000238 0.000328 0.000414 0.000465 0.000507 0.000559 0.000601 0.000612 0.000609
0.000969 0.000985 0.000971 0.000860 0.000712 0.000619 0.000563 0.000461 0.000311 0.000202 0.000165 0.000165 0.000150 0.000105 0.000064 0.000049 0.000064 0.000105 0.000150 0.000165 0.000165 0.000202 0.000311 0.000461 0.000563 0.000619 0.000712 0.000860 0.000971 0.000985 0.000969
0.001980 0.001990 0.001901 0.001591 0.001214 0.000973 0.000850 0.000688 0.000452 0.000269 0.000197 0.000192 0.000180 0.000131 0.000081 0.000063 0.000081 0.000131 0.000180 0.000192 0.000197 0.000269 0.000452 0.000688 0.000850 0.000973 0.001214 0.001591 0.001901 0.001990 0.001980
0.003678 0.003672 0.003480 0.002926 0.002244 0.001757 0.001459 0.001152 0.000783 0.000491 0.000340 0.000272 0.000220 0.000170 0.000135 0.000124 0.000135 0.000170 0.000220 0.000272 0.000340 0.000491 0.000783 0.001152 0.001459 0.001757 0.002244 0.002926 0.003480 0.003672 0.003678
0.006271 0.006232 0.005919 0.005129 0.004112 0.003239 0.002549 0.001908 0.001331 0.000916 0.000645 0.000435 0.000280 0.000211 0.000214 0.000229 0.000214 0.000211 0.000280 0.000435 0.000645 0.000916 0.001331 0.001908 0.002549 0.003239 0.004112 0.005129 0.005919 0.006232 0.006271
0.011824 0.011594 0.010781 0.009340 0.007601 0.005902 0.004322 0.002950 0.001981 0.001425 0.001041 0.000654 0.000352 0.000244 0.000276 0.000319 0.000276 0.000244 0.000352 0.000654 0.001041 0.001425 0.001981 0.002950 0.004322 0.005902 0.007601 0.009340 0.010781 0.011594 0.011824
0.025158 0.024256 0.021730 0.018197 0.014451 0.010862 0.007477 0.004652 0.002849 0.001964 0.001448 0.000914 0.000470 0.000296 0.000321 0.000370 0.000321 0.000296 0.000470 0.000914 0.001448 0.001964 0.002849 0.004652 0.007477 0.010862 0.014451 0.018197 0.021730 0.024256 0.025158
0.051623 0.049368 0.043250 0.035100 0.026961 0.019700 0.013246 0.007948 0.004505 0.002791 0.001944 0.001268 0.000702 0.000429 0.000397 0.000424 0.000397 0.000429 0.000702 0.001268 0.001944 0.002791 0.004505 0.007948 0.013246 0.019700 0.026961 0.035100 0.043250 0.049368 0.051623
0.094455 0.090657 0.079664 0.063835 0.047475 0.033599 0.022453 0.013641 0.007558 0.004222 0.002632 0.001723 0.001060 0.000667 0.000525 0.000502 0.000525 0.000667 0.001060 0.001723 0.002632 0.004222 0.007558 0.013641 0.022453 0.033599 0.047475 0.063835 0.079664 0.090657 0.094455
0.163879 0.159079 0.142501 0.113848 0.081172 0.053998 0.034843 0.021385 0.011954 0.006254 0.003453 0.002164 0.001431 0.000936 0.000656 0.000571 0.000656 0.000936 0.001431 0.002164 0.003453 0.006254 0.011954 0.021385 0.034843 0.053998 0.081172 0.113848 0.142501 0.159079 0.163879
0.289890 0.284563 0.259673 0.206365 0.139581 0.084591 0.050205 0.030000 0.016906 0.008584 0.004298 0.002506 0.001700 0.001143 0.000747 0.000605 0.000747 0.001143 0.001700 0.002506 0.004298 0.008584 0.016906 0.030000 0.050205 0.084591 0.139581 0.206365 0.259673 0.284563 0.289890
0.499607 0.493384 0.454139 0.357666 0.230869 0.127718 0.068317 0.038517 0.021616 0.010909 0.005161 0.002811 0.001898 0.001297 0.000817 0.000635 0.000817 0.001297 0.001898 0.002811 0.005161 0.010909 0.021616 0.038517 0.068317 0.127718 0.230869 0.357666 0.454139 0.493384 0.499607
0.739867 0.731989 0.674869 0.527445 0.330844 0.172490 0.085278 0.045483 0.025272 0.012815 0.005941 0.003108 0.002071 0.001426 0.000889 0.000680 0.000889 0.001426 0.002071 0.003108 0.005941 0.012815 0.025272 0.045483 0.085278 0.172490 0.330844 0.527445 0.674869 0.731989 0.739867
0.852744 0.843886 0.777945 0.606274 0.376802 0.192638 0.092596 0.048309 0.026712 0.013590 0.006279 0.003246 0.002151 0.001485 0.000924 0.000706 0.000924 0.001485 0.002151 0.003246 0.006279 0.013590 0.026712 0.048309 0.092596 0.192638 0.376802 0.606274 0.777945 0.843886 0.852744

0.445103 0.438538 0.402118 0.317101 0.207288 0.117770 0.065047 0.037373 0.021002 0.010593 0.005066 0.002792 0.001872 0.001264 0.000798 0.000626 0.000798 0.001264 0.001872 0.002792 0.005066 0.010593 0.021002 0.037373 0.065047 0.117770 0.207288 0.317101 0.402118 0.438538 0.445103
0.396639 0.390493 0.357747 0.282718 0.186417 0.107699 0.060661 0.035254 0.019828 0.010004 0.004832 0.002703 0.001822 0.001230 0.000783 0.000619 0.000783 0.001230 0.001822 0.002703 0.004832 0.010004 0.019828 0.035254 0.060661 0.107699 0.186417 0.282718 0.357747 0.390493 0.396639
0.289890 0.284563 0.259673 0.206365 0.139581 0.084591 0.050205 0.030000 0.016906 0.008584 0.004298 0.002506 0.001700 0.001143 0.000747 0.000605 0.000747 0.001143 0.001700 0.002506 0.004298 0.008584 0.016906 0.030000 0.050205 0.084591 0.139581 0.206365 0.259673 0.284563 0.289890
0.188755 0.184145 0.166458 0.133133 0.093508 0.060567 0.038301 0.023498 0.013255 0.006891 0.003695 0.002273 0.001524 0.001010 0.000693 0.000589 0.000693 0.001010 0.001524 0.002273 0.003695 0.006891 0.013255 0.023498 0.038301 0.060567 0.093508 0.133133 0.166458 0.184145 0.188755
0.118205 0.114354 0.101965 0.081935 0.059801 0.041157 0.027231 0.016835 0.009495 0.005175 0.003043 0.001952 0.001250 0.000806 0.000597 0.000543 0.000597 0.000806 0.001250 0.001952 0.003043 0.005175 0.009495 0.016835 0.027231 0.041157 0.059801 0.081935 0.101965 0.114354 0.118205
0.071203 0.068449 0.060453 0.048872 0.036767 0.026292 0.017684 0.010829 0.006146 0.003594 0.002326 0.001511 0.000894 0.000558 0.000464 0.000461 0.000464 0.000558 0.000894 0.001511 0.002326 0.003594 0.006146 0.010829 0.017684 0.026292 0.036767 0.048872 0.060453 0.068449 0.071203
0.039026 0.037534 0.033314 0.027367 0.021155 0.015513 0.010526 0.006450 0.003775 0.002403 0.001679 0.001077 0.000587 0.000363 0.000348 0.000377 0.000348 0.000363 0.000587 0.001077 0.001679 0.002403 0.003775 0.006450 0.010526 0.015513 0.021155 0.027367 0.033314 0.037534 0.039026
0.019407 0.018834 0.017102 0.014463 0.011529 0.008730 0.006139 0.003939 0.002459 0.001676 0.001213 0.000773 0.000415 0.000269 0.000283 0.000319 0.000283 0.000269 0.000415 0.000773 0.001213 0.001676 0.002459 0.003939 0.006139 0.008730 0.011529 0.014463 0.017102 0.018834 0.019407
0.009764 0.009600 0.008958 0.007755 0.006307 0.004960 0.003741 0.002619 0.001744 0.001204 0.000866 0.000574 0.000342 0.000239 0.000242 0.000262 0.000242 0.000239 0.000342 0.000574 0.000866 0.001204 0.001744 0.002619 0.003741 0.004960 0.006307 0.007755 0.008958 0.009600 0.009764
0.005511 0.005459 0.005140 0.004408 0.003528 0.002826 0.002289 0.001736 0.001182 0.000778 0.000548 0.000403 0.000287 0.000211 0.000182 0.000178 0.000182 0.000211 0.000287 0.000403 0.000548 0.000778 0.001182 0.001736 0.002289 0.002826 0.003528 0.004408 0.005140 0.005459 0.005511
0.003230 0.003208 0.003004 0.002502 0.001925 0.001538 0.001309 0.001039 0.000692 0.000420 0.000295 0.000254 0.000218 0.000160 0.000110 0.000092 0.000110 0.000160 0.000218 0.000254 0.000295 0.000420 0.000692 0.001039 0.001309 0.001538 0.001925 0.002502 0.003004 0.003208 0.003230
0.001714 0.001713 0.001620 0.001351 0.001039 0.000846 0.000745 0.000601 0.000390 0.000227 0.000166 0.000165 0.000156 0.000111 0.000063 0.000046 0.000063 0.000111 0.000156 0.000165 0.000166 0.000227 0.000390 0.000601 0.000745 0.000846 0.001039 0.001351 0.001620 0.001713 0.001714