  ABINIT 8.11.13
  
  Give name for formatted input file: 
opt.in
  Give name for formatted output file:
opt.out
  Give root name for generic input files:
opti
  Give root name for generic output files:
opto
  Give root name for generic temporary files:
opt
 
--- !COMMENT
src_file: m_dtfil.F90
src_line: 1450
message: |
    Output file: opt.out already exists.
...
 
 
--- !COMMENT
src_file: m_dtfil.F90
src_line: 1474
message: |
    Renaming old opt.out to opt.out0001
...
 

.Version 8.11.13 of ABINIT 
.(MPI version, prepared for a x86_64_linux_intel14.0 computer) 

.Copyright (C) 1998-2019 ABINIT group . 
 ABINIT comes with ABSOLUTELY NO WARRANTY.
 It is free software, and you are welcome to redistribute it
 under certain conditions (GNU General Public License,
 see ~abinit/COPYING or http://www.gnu.org/copyleft/gpl.txt).

 ABINIT is a project of the Universite Catholique de Louvain,
 Corning Inc. and other collaborators, see ~abinit/doc/developers/contributors.txt .
 Please read https://docs.abinit.org/theory/acknowledgments for suggested
 acknowledgments of the ABINIT effort.
 For more information, see https://www.abinit.org .

.Starting date : Wed 22 Jan 2020.
- ( at 17h35 )
  
 
 ++++++++++++++++++++++++++++++++++++++++++++++++++++++++++++++++++++++++++++++
 
 === Build Information === 
  Version       : 8.11.13
  Build target  : x86_64_linux_intel14.0
  Build date    : 20191206
 
 === Compiler Suite === 
  C compiler       : intel14.0
  C++ compiler     : gnu14.0
  Fortran compiler : intel14.0
  CFLAGS           :  -g -O2
  CXXFLAGS         :  -g -O2 -mtune=native -march=native
  FCFLAGS          :  -g -extend-source -nofpscomp
  FC_LDFLAGS       :    -static-intel -static-libgcc
 
 === Optimizations === 
  Debug level        : basic
  Optimization level : standard
  Architecture       : intel_xeon
 
 === Multicore === 
  Parallel build : yes
  Parallel I/O   : yes
  openMP support : no
  GPU support    : no
 
 === Connectors / Fallbacks === 
  Connectors on : yes
  Fallbacks on  : yes
  DFT flavor    : libxc-fallback
  FFT flavor    : fftw3
  LINALG flavor : mkl
  TIMER flavor  : abinit
  TRIO flavor   : netcdf
 
 === Experimental features === 
  Exports             : no
  GW double-precision : yes
 
 ++++++++++++++++++++++++++++++++++++++++++++++++++++++++++++++++++++++++++++++
 

 ++++++++++++++++++++++++++++++++++++++++++++++++++++++++++++++++++++++++++++++
 Default optimizations:
   -O3


 Optimizations for 43_ptgroups:
   -O0


 ++++++++++++++++++++++++++++++++++++++++++++++++++++++++++++++++++++++++++++++


 ++++++++++++++++++++++++++++++++++++++++++++++++++++++++++++++++++++++++++++++
 CPP options activated during the build:

                  CC_INTEL                   CXX_GNU                  FC_INTEL
 
 HAVE_FC_ALLOCATABLE_DT...             HAVE_FC_ASYNC  HAVE_FC_COMMAND_ARGUMENT
 
        HAVE_FC_CONTIGUOUS           HAVE_FC_CPUTIME             HAVE_FC_ETIME
 
              HAVE_FC_EXIT             HAVE_FC_FLUSH             HAVE_FC_GAMMA
 
            HAVE_FC_GETENV            HAVE_FC_GETPID   HAVE_FC_IEEE_ARITHMETIC
 
   HAVE_FC_IEEE_EXCEPTIONS             HAVE_FC_IOMSG     HAVE_FC_ISO_C_BINDING
 
  HAVE_FC_ISO_FORTRAN_2008        HAVE_FC_LONG_LINES        HAVE_FC_MOVE_ALLOC
 
  HAVE_FC_ON_THE_FLY_SHAPE           HAVE_FC_PRIVATE         HAVE_FC_PROTECTED
 
           HAVE_FC_SHIFTLR         HAVE_FC_STREAM_IO            HAVE_FC_SYSTEM
 
                  HAVE_FFT            HAVE_FFT_FFTW3              HAVE_FFT_MPI
 
           HAVE_FFT_SERIAL               HAVE_GW_DPC        HAVE_LIBPAW_ABINIT
 
      HAVE_LIBTETRA_ABINIT                HAVE_LIBXC               HAVE_LINALG
 
         HAVE_LINALG_AXPBY        HAVE_LINALG_GEMM3M  HAVE_LINALG_MKL_IMATCOPY
 
   HAVE_LINALG_MKL_OMATADD  HAVE_LINALG_MKL_OMATCOPY   HAVE_LINALG_MKL_THREADS
 
        HAVE_LINALG_SERIAL                  HAVE_MPI                 HAVE_MPI2
 
       HAVE_MPI_IALLREDUCE        HAVE_MPI_IALLTOALL       HAVE_MPI_IALLTOALLV
 
           HAVE_MPI_IBCAST         HAVE_MPI_IGATHERV        HAVE_MPI_INTEGER16
 
               HAVE_MPI_IO HAVE_MPI_TYPE_CREATE_S...               HAVE_NETCDF
 
           HAVE_NETCDF_MPI                HAVE_NUMPY             HAVE_OS_LINUX
 
         HAVE_TIMER_ABINIT                  HAVE_XML              USE_MACROAVE
 
 ++++++++++++++++++++++++++++++++++++++++++++++++++++++++++++++++++++++++++++++

- input  file    -> opt.in
- output file    -> opt.out
- root for input  files -> opti
- root for output files -> opto
 
Netcdf library supports MPI-IO
-instrng: 57 lines of input have been read from file opt.in
 

 Please give name of formatted atomic psp file
 For atom type 1, psp file is /CECI/home/ucl/naps/jovbever/.PsP/Si/Si.psp8
  read the values zionpsp=  4.0 , pspcod=   8 , lmax=   2
 
 inpspheads: deduce mpsang = 3, n1xccc = 2501.

======================================================= 
invars1m : enter jdtset= 0
 
 symlatt: the Bravais lattice is cF (face-centered cubic)
  xred   is defined in input file
 ingeo: takes atomic coordinates from input array xred
 
 symlatt: the Bravais lattice is cF (face-centered cubic)
 
 symlatt: the Bravais lattice is cF (face-centered cubic)
 
--- !COMMENT
src_file: m_symfind.F90
src_line: 931
message: |
    The Bravais lattice determined only from the primitive
    vectors, bravais(1)=  7, is more symmetric
    than the real one, iholohedry=  1, obtained by taking into
    account the atomic positions. Start deforming the primitive vector set.
...
 
 
 symlatt: the Bravais lattice is hR (rhombohedral)
 
--- !COMMENT
src_file: m_symfind.F90
src_line: 940
message: |
    The Bravais lattice determined from modified primitive
    vectors, bravais(1)=  5, has a lower symmetry than before,
    but is still more symmetric than the real one, iholohedry=  1
    obtained by taking into account the atomic positions.
...
 
 
 symlatt: the Bravais lattice is mC (one-face-centered monoclinic)
 
--- !COMMENT
src_file: m_symfind.F90
src_line: 940
message: |
    The Bravais lattice determined from modified primitive
    vectors, bravais(1)=  2, has a lower symmetry than before,
    but is still more symmetric than the real one, iholohedry=  1
    obtained by taking into account the atomic positions.
...
 
 
 symlatt: the Bravais lattice is aP (primitive triclinic)
 symspgr: spgroup=   1  P1   (=C1^1)
 
--- !WARNING
src_file: m_mpinfo.F90
src_line: 2292
message: |
    nkpt*nsppol (128) is not a multiple of nproc_kpt (14)
    The k-point parallelisation is inefficient. (Ignore this warning if this is not a GS run)
...
 
 For input ecut=  1.764000E+01 best grid ngfft=      32      32      32
       max ecut=  1.965348E+01
 
 ==== FFT mesh ====
  FFT mesh divisions ........................    32   32   32
  Augmented FFT divisions ...................    33   33   32
  FFT algorithm .............................   312
  FFT cache size ............................    16
 getmpw: optimal value of mpw= 1300
 
 Symmetries : space group P1 (#  1); Bravais aP (primitive triclinic)
 
 getdim_nloc : deduce lmnmax  =  18, lnmax  =   6,
                      lmnmaxso=  18, lnmaxso=   6.
memory: analysis of memory needs
================================================================================
 Values of the parameters that define the memory need of the present run
     intxc =       0    ionmov =       2      iscf =       7    lmnmax =       6
     lnmax =       6     mgfft =      32  mpssoang =       3    mqgrid =    3001
     natom =       2  nloc_mem =       1    nspden =       1   nspinor =       1
    nsppol =       1      nsym =       1    n1xccc =    2501    ntypat =       1
    occopt =       1   xclevel =       2
-    mband =           6        mffmem =           1         mkmem =          10
       mpw =        1300          nfft =       32768          nkpt =         128
================================================================================
P This job should need less than                      11.863 Mbytes of memory.
  Rough estimation (10% accuracy) of disk space for files :
_ WF disk file :     15.236 Mbytes ; DEN or POT disk file :      0.252 Mbytes.
================================================================================
 
 Biggest array : f_fftgr(disk), with      4.0020 MBytes.
 memana : allocated an array of      4.002 Mbytes, for testing purposes.
 memana: allocated      11.863Mbytes, for testing purposes. 
 The job will continue.
--------------------------------------------------------------------------------
------------- Echo of variables that govern the present computation ------------
--------------------------------------------------------------------------------
-
- outvars: echo of selected default values                                      
-   iomode0 =  0 , fftalg0 =312 , wfoptalg0 =  0
-
- outvars: echo of global parameters not present in the input file              
-  max_nthreads =    0
-
 -outvars: echo values of preprocessed input variables --------
 
 These variables are accessible in NetCDF format (opto_OUT.nc)

            acell      1.1338356797E+01  1.1338356797E+01  1.1338356797E+01 Bohr
              amu      2.80855000E+01
          dilatmx      1.05000000E+00
             ecut      1.60000000E+01 Hartree
           ecutsm      5.00000000E-01 Hartree
-          fftalg         312
           ionmov           2
              ixc          11
              kpt     -1.25000000E-01 -2.50000000E-01  0.00000000E+00
                      -2.50000000E-01 -1.25000000E-01  0.00000000E+00
                      -1.25000000E-01 -1.25000000E-01  1.25000000E-01
                      -1.25000000E-01  5.00000000E-01  0.00000000E+00
                      -2.50000000E-01 -3.75000000E-01  0.00000000E+00
                      -1.25000000E-01 -3.75000000E-01  1.25000000E-01
                      -3.75000000E-01 -2.50000000E-01  0.00000000E+00
                      -2.50000000E-01 -2.50000000E-01  1.25000000E-01
                      -1.25000000E-01 -2.50000000E-01  2.50000000E-01
                       5.00000000E-01 -1.25000000E-01  0.00000000E+00
                      -3.75000000E-01 -1.25000000E-01  1.25000000E-01
                      -2.50000000E-01 -1.25000000E-01  2.50000000E-01
                      -1.25000000E-01 -1.25000000E-01  3.75000000E-01
                      -1.25000000E-01  2.50000000E-01  0.00000000E+00
                      -2.50000000E-01  3.75000000E-01  0.00000000E+00
                      -1.25000000E-01  3.75000000E-01  1.25000000E-01
                      -3.75000000E-01  5.00000000E-01  0.00000000E+00
                      -2.50000000E-01  5.00000000E-01  1.25000000E-01
                      -1.25000000E-01  5.00000000E-01  2.50000000E-01
                       5.00000000E-01 -3.75000000E-01  0.00000000E+00
                      -3.75000000E-01 -3.75000000E-01  1.25000000E-01
                      -2.50000000E-01 -3.75000000E-01  2.50000000E-01
                      -1.25000000E-01 -3.75000000E-01  3.75000000E-01
                       3.75000000E-01 -2.50000000E-01  0.00000000E+00
                       5.00000000E-01 -2.50000000E-01  1.25000000E-01
                      -3.75000000E-01 -2.50000000E-01  2.50000000E-01
                      -2.50000000E-01 -2.50000000E-01  3.75000000E-01
                      -1.25000000E-01 -2.50000000E-01  5.00000000E-01
                       2.50000000E-01 -1.25000000E-01  0.00000000E+00
                       3.75000000E-01 -1.25000000E-01  1.25000000E-01
                       5.00000000E-01 -1.25000000E-01  2.50000000E-01
                      -3.75000000E-01 -1.25000000E-01  3.75000000E-01
                      -2.50000000E-01 -1.25000000E-01  5.00000000E-01
                      -1.25000000E-01 -1.25000000E-01 -3.75000000E-01
                      -1.25000000E-01  0.00000000E+00  0.00000000E+00
                      -1.25000000E-01  1.25000000E-01  1.25000000E-01
                      -2.50000000E-01  2.50000000E-01  1.25000000E-01
                      -1.25000000E-01  2.50000000E-01  2.50000000E-01
                      -3.75000000E-01  3.75000000E-01  1.25000000E-01
                      -2.50000000E-01  3.75000000E-01  2.50000000E-01
                      -1.25000000E-01  3.75000000E-01  3.75000000E-01
                       5.00000000E-01  5.00000000E-01  1.25000000E-01
                      -3.75000000E-01  5.00000000E-01  2.50000000E-01
                      -2.50000000E-01  5.00000000E-01  3.75000000E-01
                      -1.25000000E-01  5.00000000E-01  5.00000000E-01
                       3.75000000E-01 -3.75000000E-01  1.25000000E-01
                       5.00000000E-01 -3.75000000E-01  2.50000000E-01
                      -3.75000000E-01 -3.75000000E-01  3.75000000E-01
                      -2.50000000E-01 -3.75000000E-01  5.00000000E-01
                      -1.25000000E-01 -3.75000000E-01 -3.75000000E-01
                       outvar_i_n : Printing only first  50 k-points.
         kptrlatt        4   -4    4     -4    4    4     -4   -4    4
          kptrlen      4.53534272E+01
P           mkmem          10
            natom           2
            nband           6
            ngfft          32      32      32
             nkpt         128
             nsym           1
            ntime          15
           ntypat           1
              occ      2.000000  2.000000  2.000000  2.000000  0.000000  0.000000
          optcell           2
            rprim      5.0000000000E-01  5.0000000000E-01  0.0000000000E+00
                       0.0000000000E+00  5.0000000000E-01  5.0000000000E-01
                       5.0000000000E-01  0.0000000000E+00  5.0000000000E-01
           shiftk      5.00000000E-01  5.00000000E-01  5.00000000E-01
          spgroup           1
           tolmxf      1.00000000E-08
           tolvrs      1.00000000E-10
            typat      1  1
              wtk        0.00781    0.00781    0.00781    0.00781    0.00781    0.00781
                         0.00781    0.00781    0.00781    0.00781    0.00781    0.00781
                         0.00781    0.00781    0.00781    0.00781    0.00781    0.00781
                         0.00781    0.00781    0.00781    0.00781    0.00781    0.00781
                         0.00781    0.00781    0.00781    0.00781    0.00781    0.00781
                         0.00781    0.00781    0.00781    0.00781    0.00781    0.00781
                         0.00781    0.00781    0.00781    0.00781    0.00781    0.00781
                         0.00781    0.00781    0.00781    0.00781    0.00781    0.00781
                         0.00781    0.00781
                       outvars : Printing only first  50 k-points.
           xangst      0.0000000000E+00  0.0000000000E+00  0.0000000000E+00
                       1.5000000000E+00  1.5000000000E+00  1.5000000000E+00
            xcart      0.0000000000E+00  0.0000000000E+00  0.0000000000E+00
                       2.8345891993E+00  2.8345891993E+00  2.8345891993E+00
             xred      0.0000000000E+00  0.0000000000E+00  0.0000000000E+00
                       2.5000000000E-01  2.5000000000E-01  2.5000000000E-01
            znucl       14.00000
 
================================================================================
 
 chkinp: Checking input parameters for consistency.
 DATA TYPE INFORMATION: 
 REAL:      Data type name: REAL(DP) 
            Kind value:      8
            Precision:      15
            Smallest nonnegligible quantity relative to 1:  0.22204460E-15
            Smallest positive number:                       0.22250739-307
            Largest representable number:                   0.17976931+309
 INTEGER:   Data type name: INTEGER(default) 
            Kind value: 4
            Bit size:   32
            Largest representable number: 2147483647
 LOGICAL:   Data type name: LOGICAL 
            Kind value: 4
 CHARACTER: Data type name: CHARACTER             Kind value: 1

  ==== OpenMP parallelism is OFF ====
 
  ==== Using MPI-2 specifications ==== 
  MPI-IO support is ON
  xmpi_tag_ub ................   1073741824
  xmpi_bsize_ch ..............            1
  xmpi_bsize_int .............            4
  xmpi_bsize_sp ..............            4
  xmpi_bsize_dp ..............            8
  xmpi_bsize_spc .............            8
  xmpi_bsize_dpc .............           16
  xmpio_bsize_frm ............            4
  xmpi_address_kind ..........            8
  xmpi_offset_kind ...........            8
  MPI_WTICK ..................   1.000000000000000E-006
 
================================================================================
== DATASET  1 ==================================================================
-   nproc =   14
 
 
--- !COMMENT
src_file: m_xgScalapack.F90
src_line: 237
message: |
    xgScalapack in auto mode
...
 
 
 getdim_nloc : deduce lmnmax  =  18, lnmax  =   6,
                      lmnmaxso=  18, lnmaxso=   6.
 Exchange-correlation functional for the present dataset will be:
  GGA: Perdew-Burke-Ernzerhof functional - ixc=11
 Citation for XC functional:
  J.P.Perdew, K.Burke, M.Ernzerhof, PRL 77, 3865 (1996)
 
 Unit cell volume ucvol=  3.6441007E+02 bohr^3
 Angles (23,13,12)=  6.00000000E+01  6.00000000E+01  6.00000000E+01 degrees
 
 getcut: wavevector=  0.0000  0.0000  0.0000  ngfft=  32  32  32
         ecut(hartree)=     17.640   => boxcut(ratio)=   2.11106
- pspini: atom type   1  psp file is /CECI/home/ucl/naps/jovbever/.PsP/Si/Si.psp8
- pspatm: opening atomic psp file    /CECI/home/ucl/naps/jovbever/.PsP/Si/Si.psp8
- Si    ONCVPSP-3.2.3.1  r_core=   1.60303   1.72197   1.91712
- 14.00000   4.00000    170510                znucl, zion, pspdat
    8   11    2    4       600   0.00000      pspcod,pspxc,lmax,lloc,mmax,r2well
    5.99000000000000    4.00000000000000    0.00000000000000   rchrg,fchrg,qchrg
     nproj     2     2     2
     extension_switch     1
  valence charge integrates to:    3.95328304696650     
  pspatm : epsatm=    9.34321699
         --- l  ekb(1:nproj) -->
             0    5.168965    0.829883
             1    2.571282    0.578307
             2   -2.427311   -0.488097
 pspatm: atomic psp has been read  and splines computed
 
   1.49491472E+02                                ecore*ucvol(ha*bohr**3)
 ==== Info on pseudopotentials ====
  Norm-conserving pseudopotentials
  Number of pseudopotentials ..    1
  Number of types of atoms   ..    1
  Scalar calculation (no spin-orbit term)
  Nonlocal part applied using Legendre polynomials
  Max number of non-local projectors over l and type   2
  Highest angular momentum +1 .......   3
  Max number of (l,n)   components ..   6
  Max number of (l,m,n) components ..   6
 
 Pseudo-Core Charge Info: 
   Number of radial points for pseudo-core charge .. 2501
   XC core-correction treatment (optnlxccc) ........    1
   Radius for pseudo-core charge for each type ..... 
 
  - Atom type    1 has pseudo-core radius ..  5.9900
 
 Info on the Q-grid used for form factors in spline form: 
   Number of q-points for radial functions ffspl ..   3001
   Number of q-points for vlspl ...................   3001
   vloc is computed in Reciprocal Space
   model core charge treated in real-space
 
  XC functional for type 1 is 11
  Pseudo valence available: yes
 
 wfconv:     6 bands initialized randomly with npw=  1300, for ikpt=     1
 wfconv:     6 bands initialized randomly with npw=  1300, for ikpt=     2
 wfconv:     6 bands initialized randomly with npw=  1300, for ikpt=     3
 wfconv:     6 bands initialized randomly with npw=  1282, for ikpt=     4
 wfconv:     6 bands initialized randomly with npw=  1287, for ikpt=     5
 wfconv:     6 bands initialized randomly with npw=  1290, for ikpt=     6
 wfconv:     6 bands initialized randomly with npw=  1287, for ikpt=     7
 wfconv:     6 bands initialized randomly with npw=  1287, for ikpt=     8
 wfconv:     6 bands initialized randomly with npw=  1290, for ikpt=     9
 wfconv:     6 bands initialized randomly with npw=  1282, for ikpt=    10
_setup2: Arith. and geom. avg. npw (full set) are    1288.813    1288.795
 initro: for itypat=  1, take pseudo charge density from pp file
 
================================================================================
 
=== [ionmov= 2] Broyden-Fletcher-Goldfard-Shanno method (forces)            
================================================================================
 
--- Iteration: ( 1/15) Internal Cycle: (1/1)
--------------------------------------------------------------------------------
 
 Cartesian coordinates (xcart) [bohr]
  0.00000000000000E+00  0.00000000000000E+00  0.00000000000000E+00
  2.83458919932846E+00  2.83458919932846E+00  2.83458919932846E+00
 Reduced coordinates (xred)
  0.00000000000000E+00  0.00000000000000E+00  0.00000000000000E+00
  2.50000000000000E-01  2.50000000000000E-01  2.50000000000000E-01
 Scale of Primitive Cell (acell) [bohr]
  1.13383567973139E+01  1.13383567973139E+01  1.13383567973139E+01
 Real space primitive translations (rprimd) [bohr]
  5.66917839865693E+00  5.66917839865693E+00  0.00000000000000E+00
  0.00000000000000E+00  5.66917839865693E+00  5.66917839865693E+00
  5.66917839865693E+00  0.00000000000000E+00  5.66917839865693E+00
 Unitary Cell Volume (ucvol) [Bohr^3]=  3.64410067486860E+02
 Angles (23,13,12)= [degrees]
  6.00000000000000E+01  6.00000000000000E+01  6.00000000000000E+01
 Lengths [Bohr]
  8.01742897889321E+00  8.01742897889321E+00  8.01742897889321E+00
 
---SELF-CONSISTENT-FIELD CONVERGENCE--------------------------------------------
 
 getcut: wavevector=  0.0000  0.0000  0.0000  ngfft=  32  32  32
         ecut(hartree)=     16.000   => boxcut(ratio)=   2.21661
 
 getcut : COMMENT -
  Note that boxcut > 2.2 ; recall that boxcut=Gcut(box)/Gcut(sphere) = 2
  is sufficient for exact treatment of convolution.
  Such a large boxcut is a waste : you could raise ecut
  e.g. ecut=   19.653481 Hartrees makes boxcut=2
 
 
 ITER STEP NUMBER     1
 vtorho: nnsclo_now=2, note that nnsclo,dbl_nnsclo,istep=0 0 1
 Total charge density [el/Bohr^3]
      Maximum=    7.0580E-02  at reduced coord.    0.1875    0.1563    0.1563
      Minimum=    1.5990E-03  at reduced coord.    0.7500    0.7500    0.7500
   Integrated=    8.0000E+00
 ETOT  1  -8.4341224000032    -8.434E+00 1.555E-02 1.991E+00
 scprqt: <Vxc>= -3.0001233E-01 hartree
 
 Simple mixing update:
  residual square of the potential:    1.11415794722402
 scfcv_core: previous iteration took  1.98 [s]
 
 ITER STEP NUMBER     2
 vtorho: nnsclo_now=2, note that nnsclo,dbl_nnsclo,istep=0 0 2
 Total charge density [el/Bohr^3]
      Maximum=    6.8945E-02  at reduced coord.    0.0625    0.7500    0.0938
      Minimum=    1.5982E-03  at reduced coord.    0.2500    0.2500    0.2500
   Integrated=    8.0000E+00
 ETOT  2  -8.4368475650596    -2.725E-03 1.749E-03 7.310E-02
 scprqt: <Vxc>= -3.0091547E-01 hartree
 
 Pulay update with  1 previous iterations:
 mixing of old trial potential: alpha(m:m-4)=   1.20     -0.198
 scfcv_core: previous iteration took  1.76 [s]
 
 ITER STEP NUMBER     3
 vtorho: nnsclo_now=1, note that nnsclo,dbl_nnsclo,istep=0 0 3
 Total charge density [el/Bohr^3]
      Maximum=    6.8634E-02  at reduced coord.    0.5000    0.1563    0.1563
      Minimum=    1.6014E-03  at reduced coord.    0.0000    0.0000    0.0000
   Integrated=    8.0000E+00
 ETOT  3  -8.4368606274724    -1.306E-05 3.550E-04 2.239E-03
 scprqt: <Vxc>= -3.0109592E-01 hartree
 
 Pulay update with  2 previous iterations:
 mixing of old trial potential: alpha(m:m-4)=   1.12     -0.146      0.227E-01
 scfcv_core: previous iteration took  0.95 [s]
 
 ITER STEP NUMBER     4
 vtorho: nnsclo_now=1, note that nnsclo,dbl_nnsclo,istep=0 0 4
 Total charge density [el/Bohr^3]
      Maximum=    6.8630E-02  at reduced coord.    0.0625    0.7500    0.0938
      Minimum=    1.6019E-03  at reduced coord.    0.2500    0.2500    0.2500
   Integrated=    8.0000E+00
 ETOT  4  -8.4368608444548    -2.170E-07 3.803E-04 3.085E-04
 scprqt: <Vxc>= -3.0107811E-01 hartree
 
 Pulay update with  3 previous iterations:
 mixing of old trial potential: alpha(m:m-4)=   1.09     -0.439E-01 -0.568E-01  0.914E-02
 scfcv_core: previous iteration took  0.94 [s]
 
 ITER STEP NUMBER     5
 vtorho: nnsclo_now=1, note that nnsclo,dbl_nnsclo,istep=0 0 5
 Total charge density [el/Bohr^3]
      Maximum=    6.8628E-02  at reduced coord.    0.1563    0.1875    0.5000
      Minimum=    1.6021E-03  at reduced coord.    0.0000    0.0000    0.0000
   Integrated=    8.0000E+00
 ETOT  5  -8.4368608804827    -3.603E-08 6.285E-05 3.234E-05
 scprqt: <Vxc>= -3.0107030E-01 hartree
 
 Pulay update with  4 previous iterations:
 mixing of old trial potential: alpha(m:m-4)=   1.16     -0.742E-01 -0.928E-01  0.103E-01 -0.156E-02
 scfcv_core: previous iteration took  0.94 [s]
 
 ITER STEP NUMBER     6
 vtorho: nnsclo_now=1, note that nnsclo,dbl_nnsclo,istep=0 0 6
 Total charge density [el/Bohr^3]
      Maximum=    6.8627E-02  at reduced coord.    0.0938    0.0938    0.7500
      Minimum=    1.6022E-03  at reduced coord.    0.2500    0.2500    0.2500
   Integrated=    8.0000E+00
 ETOT  6  -8.4368608846474    -4.165E-09 1.001E-04 1.303E-06
 scprqt: <Vxc>= -3.0106664E-01 hartree
 
 Pulay update with  5 previous iterations:
 mixing of old trial potential: alpha(m:m-4)=   1.17     -0.129     -0.568E-01  0.122E-01  0.171E-02
 scfcv_core: previous iteration took  0.95 [s]
 
 ITER STEP NUMBER     7
 vtorho: nnsclo_now=1, note that nnsclo,dbl_nnsclo,istep=0 0 7
 Total charge density [el/Bohr^3]
      Maximum=    6.8627E-02  at reduced coord.    0.5000    0.1563    0.1563
      Minimum=    1.6022E-03  at reduced coord.    0.0000    0.0000    0.0000
   Integrated=    8.0000E+00
 ETOT  7  -8.4368608848345    -1.871E-10 3.593E-05 2.165E-08
 scprqt: <Vxc>= -3.0106569E-01 hartree
 
 Pulay update with  6 previous iterations:
 mixing of old trial potential: alpha(m:m-4)=   1.22     -0.232      0.194E-03  0.121E-01 -0.102E-02
 scfcv_core: previous iteration took  0.94 [s]
 
 ITER STEP NUMBER     8
 vtorho: nnsclo_now=1, note that nnsclo,dbl_nnsclo,istep=0 0 8
 Total charge density [el/Bohr^3]
      Maximum=    6.8627E-02  at reduced coord.    0.0625    0.7500    0.0938
      Minimum=    1.6022E-03  at reduced coord.    0.2500    0.2500    0.2500
   Integrated=    8.0000E+00
 ETOT  8  -8.4368608848370    -2.487E-12 5.318E-05 1.912E-10
 scprqt: <Vxc>= -3.0106557E-01 hartree
 
 Pulay update with  7 previous iterations:
 mixing of old trial potential: alpha(m:m-4)=   1.19     -0.211      0.266E-01  0.605E-03 -0.147E-02
 scfcv_core: previous iteration took  0.95 [s]
 
 ITER STEP NUMBER     9
 vtorho: nnsclo_now=1, note that nnsclo,dbl_nnsclo,istep=0 0 9
 Total charge density [el/Bohr^3]
      Maximum=    6.8627E-02  at reduced coord.    0.1875    0.5000    0.1563
      Minimum=    1.6022E-03  at reduced coord.    0.0000    0.0000    0.0000
   Integrated=    8.0000E+00
 ETOT  9  -8.4368608848370    -4.974E-14 1.730E-05 3.873E-12
 scprqt: <Vxc>= -3.0106556E-01 hartree
 
 At SCF step    9       vres2   =  3.87E-12 < tolvrs=  1.00E-10 =>converged.
 
 Cartesian components of stress tensor (hartree/bohr^3)
  sigma(1 1)=  4.44301728E-04  sigma(3 2)= -5.03526243E-12
  sigma(2 2)=  4.44301730E-04  sigma(3 1)= -5.32222854E-12
  sigma(3 3)=  4.44301728E-04  sigma(2 1)=  1.07808156E-12
 
 
   fftdatar_write: About to write data to: opto_TIM1_DEN with iomode: IO_MODE_FORTRAN
 IO operation completed. cpu:  0.00 [s] , wall:  0.01 [s]
- Creating HDf5 file with MPI-IO support: opto_GSR.nc
 Write iteration in HIST netCDF file
 
---OUTPUT-----------------------------------------------------------------------
 
 Cartesian coordinates (xcart) [bohr]
  0.00000000000000E+00  0.00000000000000E+00  0.00000000000000E+00
  2.83458919932846E+00  2.83458919932846E+00  2.83458919932846E+00
 Reduced coordinates (xred)
  0.00000000000000E+00  0.00000000000000E+00  0.00000000000000E+00
  2.50000000000000E-01  2.50000000000000E-01  2.50000000000000E-01
 Cartesian forces (fcart) [Ha/bohr]; max,rms= 1.46896E-10 1.16293E-10 (free atoms)
  5.70512601368986E-11  1.25453421415655E-10 -1.46896458707914E-10
 -5.70512601368986E-11 -1.25453421415655E-10  1.46896458707914E-10
 Reduced forces (fred)
 -1.03465159831150E-09  1.21564403818871E-10  5.09348458961842E-10
  1.03465159831150E-09 -1.21564403818871E-10 -5.09348458961842E-10
 Scale of Primitive Cell (acell) [bohr]
  1.13383567973139E+01  1.13383567973139E+01  1.13383567973139E+01
 Real space primitive translations (rprimd) [bohr]
  5.66917839865693E+00  5.66917839865693E+00  0.00000000000000E+00
  0.00000000000000E+00  5.66917839865693E+00  5.66917839865693E+00
  5.66917839865693E+00  0.00000000000000E+00  5.66917839865693E+00
 Unitary Cell Volume (ucvol) [Bohr^3]=  3.64410067486860E+02
 Angles (23,13,12)= [degrees]
  6.00000000000000E+01  6.00000000000000E+01  6.00000000000000E+01
 Lengths [Bohr]
  8.01742897889321E+00  8.01742897889321E+00  8.01742897889321E+00
 Stress tensor in cartesian coordinates (strten) [Ha/bohr^3]
  4.44301727511222E-04  1.07808155610832E-12 -5.32222854447817E-12
  1.07808155610832E-12  4.44301729876168E-04 -5.03526242852878E-12
 -5.32222854447817E-12 -5.03526242852878E-12  4.44301728341165E-04
 Total energy (etotal) [Ha]= -8.43686088483702E+00
 fconv : at Broyd/MD step   1, gradients have not converged yet. 
  max grad (force/stress) = 4.4430E-02 > tolmxf= 1.0000E-08 ha/bohr (free atoms)
 
Inverse hessian has been initialized.
 EXIT:           1           1
 mover: previous time step took 10.86 [s]
 
--- Iteration: ( 2/15) Internal Cycle: (1/1)
--------------------------------------------------------------------------------
 
 Cartesian coordinates (xcart) [bohr]
  5.62908208788091E-11  1.23781246202969E-10 -1.44938468137060E-10
  2.79680681365261E+00  2.79680681333520E+00  2.79680681482299E+00
 Reduced coordinates (xred)
  2.90519293182328E-11 -6.92289886729915E-12 -1.89885204563042E-11
  2.49999999970948E-01  2.50000000006923E-01  2.50000000018989E-01
 Scale of Primitive Cell (acell) [bohr]
  7.91056425172457E+00  7.91056425456556E+00  7.91056425498802E+00
 Real space primitive translations (rprimd) [bohr]
  5.59361362560744E+00  5.59361362520522E+00  3.52310784530731E-09
  1.44364980249974E-09  5.59361362728468E+00  5.59361362754575E+00
  5.59361362778451E+00  1.34603786162130E-09  5.59361362764336E+00
 Unitary Cell Volume (ucvol) [Bohr^3]=  3.50031709710327E+02
 Angles (23,13,12)= [degrees]
  5.99999999831477E+01  5.99999999695980E+01  5.99999999725887E+01
 Lengths [Bohr]
  7.91056425172457E+00  7.91056425456556E+00  7.91056425498802E+00
 
---SELF-CONSISTENT-FIELD CONVERGENCE--------------------------------------------
 
 getcut: wavevector=  0.0000  0.0000  0.0000  ngfft=  32  32  32
         ecut(hartree)=     16.000   => boxcut(ratio)=   2.24656
 
 getcut : COMMENT -
  Note that boxcut > 2.2 ; recall that boxcut=Gcut(box)/Gcut(sphere) = 2
  is sufficient for exact treatment of convolution.
  Such a large boxcut is a waste : you could raise ecut
  e.g. ecut=   20.188069 Hartrees makes boxcut=2
 
 
 ITER STEP NUMBER     1
 vtorho: nnsclo_now=2, note that nnsclo,dbl_nnsclo,istep=0 0 1
 Total charge density [el/Bohr^3]
      Maximum=    7.1411E-02  at reduced coord.    0.7500    0.0938    0.0938
      Minimum=    1.5868E-03  at reduced coord.    0.2500    0.2500    0.2500
   Integrated=    8.0000E+00
 ETOT  1  -8.4427994973423    -8.443E+00 7.042E-04 1.362E+00
 scprqt: <Vxc>= -3.0506461E-01 hartree
 
 Simple mixing update:
  residual square of the potential:   0.387153624483712
 scfcv_core: previous iteration took  1.65 [s]
 
 ITER STEP NUMBER     2
 vtorho: nnsclo_now=2, note that nnsclo,dbl_nnsclo,istep=0 0 2
 Total charge density [el/Bohr^3]
      Maximum=    7.0631E-02  at reduced coord.    0.5000    0.1563    0.1563
      Minimum=    1.5819E-03  at reduced coord.    0.0000    0.0000    0.0000
   Integrated=    8.0000E+00
 ETOT  2  -8.4430490837774    -2.496E-04 1.581E-05 1.712E-01
 scprqt: <Vxc>= -3.0592176E-01 hartree
 
 Pulay update with  1 previous iterations:
 mixing of old trial potential: alpha(m:m-4)=   1.43     -0.432
 scfcv_core: previous iteration took  1.74 [s]
 
 ITER STEP NUMBER     3
 vtorho: nnsclo_now=1, note that nnsclo,dbl_nnsclo,istep=0 0 3
 Total charge density [el/Bohr^3]
      Maximum=    7.0393E-02  at reduced coord.    0.7500    0.0625    0.0938
      Minimum=    1.5811E-03  at reduced coord.    0.2500    0.2500    0.2500
   Integrated=    8.0000E+00
 ETOT  3  -8.4430741858864    -2.510E-05 9.547E-06 5.659E-03
 scprqt: <Vxc>= -3.0629521E-01 hartree
 
 Pulay update with  2 previous iterations:
 mixing of old trial potential: alpha(m:m-4)=   1.46     -0.603      0.139
 scfcv_core: previous iteration took  0.92 [s]
 
 ITER STEP NUMBER     4
 vtorho: nnsclo_now=1, note that nnsclo,dbl_nnsclo,istep=0 0 4
 Total charge density [el/Bohr^3]
      Maximum=    7.0387E-02  at reduced coord.    0.1563    0.1875    0.1563
      Minimum=    1.5810E-03  at reduced coord.    0.0000    0.0000    0.0000
   Integrated=    8.0000E+00
 ETOT  4  -8.4430745959369    -4.101E-07 3.862E-06 3.077E-05
 scprqt: <Vxc>= -3.0634832E-01 hartree
 
 Pulay update with  3 previous iterations:
 mixing of old trial potential: alpha(m:m-4)=   1.21     -0.290      0.988E-01 -0.228E-01
 scfcv_core: previous iteration took  0.90 [s]
 
 ITER STEP NUMBER     5
 vtorho: nnsclo_now=1, note that nnsclo,dbl_nnsclo,istep=0 0 5
 Total charge density [el/Bohr^3]
      Maximum=    7.0385E-02  at reduced coord.    0.0625    0.0938    0.0938
      Minimum=    1.5809E-03  at reduced coord.    0.2500    0.2500    0.2500
   Integrated=    8.0000E+00
 ETOT  5  -8.4430745977546    -1.818E-09 9.905E-06 3.244E-07
 scprqt: <Vxc>= -3.0635117E-01 hartree
 
 Pulay update with  4 previous iterations:
 mixing of old trial potential: alpha(m:m-4)=   1.18     -0.199      0.297E-01 -0.885E-02  0.226E-02
 scfcv_core: previous iteration took  0.96 [s]
 
 ITER STEP NUMBER     6
 vtorho: nnsclo_now=1, note that nnsclo,dbl_nnsclo,istep=0 0 6
 Total charge density [el/Bohr^3]
      Maximum=    7.0385E-02  at reduced coord.    0.5000    0.1563    0.1563
      Minimum=    1.5809E-03  at reduced coord.    0.0000    0.0000    0.0000
   Integrated=    8.0000E+00
 ETOT  6  -8.4430745977720    -1.740E-11 2.375E-06 4.659E-09
 scprqt: <Vxc>= -3.0635094E-01 hartree
 
 Pulay update with  5 previous iterations:
 mixing of old trial potential: alpha(m:m-4)=   1.19     -0.221      0.291E-01 -0.365E-02  0.997E-03
 scfcv_core: previous iteration took  0.94 [s]
 
 ITER STEP NUMBER     7
 vtorho: nnsclo_now=1, note that nnsclo,dbl_nnsclo,istep=0 0 7
 Total charge density [el/Bohr^3]
      Maximum=    7.0385E-02  at reduced coord.    0.7500    0.0938    0.0938
      Minimum=    1.5809E-03  at reduced coord.    0.2500    0.2500    0.2500
   Integrated=    8.0000E+00
 ETOT  7  -8.4430745977722    -1.599E-13 5.376E-06 5.339E-11
 scprqt: <Vxc>= -3.0635095E-01 hartree
 
 At SCF step    7       vres2   =  5.34E-11 < tolvrs=  1.00E-10 =>converged.
 
 Cartesian components of stress tensor (hartree/bohr^3)
  sigma(1 1)=  4.18217934E-04  sigma(3 2)= -1.27901232E-13
  sigma(2 2)=  4.18217934E-04  sigma(3 1)=  3.38495396E-14
  sigma(3 3)=  4.18217934E-04  sigma(2 1)= -2.17434684E-13
 
 
   fftdatar_write: About to write data to: opto_TIM2_DEN with iomode: IO_MODE_FORTRAN
 IO operation completed. cpu:  0.00 [s] , wall:  0.01 [s]
- Creating HDf5 file with MPI-IO support: opto_GSR.nc
 Write iteration in HIST netCDF file
 
---OUTPUT-----------------------------------------------------------------------
 
 Cartesian coordinates (xcart) [bohr]
  5.62908208788091E-11  1.23781246202969E-10 -1.44938468137060E-10
  2.79680681365261E+00  2.79680681333520E+00  2.79680681482299E+00
 Reduced coordinates (xred)
  2.90519293182328E-11 -6.92289886729915E-12 -1.89885204563042E-11
  2.49999999970948E-01  2.50000000006923E-01  2.50000000018989E-01
 Cartesian forces (fcart) [Ha/bohr]; max,rms= 1.20490E-11 7.85470E-12 (free atoms)
 -1.60423099640987E-12 -6.11050114139676E-12  1.20489524163761E-11
  1.60423099640987E-12  6.11050114139676E-12 -1.20489524163761E-11
 Reduced forces (fred)
  4.31532307590393E-11 -3.32174019775203E-11 -5.84237360632104E-11
 -4.31532307590393E-11  3.32174019775203E-11  5.84237360632104E-11
 Scale of Primitive Cell (acell) [bohr]
  7.91056425172457E+00  7.91056425456556E+00  7.91056425498802E+00
 Real space primitive translations (rprimd) [bohr]
  5.59361362560744E+00  5.59361362520522E+00  3.52310784530731E-09
  1.44364980249974E-09  5.59361362728468E+00  5.59361362754575E+00
  5.59361362778451E+00  1.34603786162130E-09  5.59361362764336E+00
 Unitary Cell Volume (ucvol) [Bohr^3]=  3.50031709710327E+02
 Angles (23,13,12)= [degrees]
  5.99999999831477E+01  5.99999999695980E+01  5.99999999725887E+01
 Lengths [Bohr]
  7.91056425172457E+00  7.91056425456556E+00  7.91056425498802E+00
 Stress tensor in cartesian coordinates (strten) [Ha/bohr^3]
  4.18217934273838E-04 -2.17434684447905E-13  3.38495395922500E-14
 -2.17434684447905E-13  4.18217934118632E-04 -1.27901232409881E-13
  3.38495395922500E-14 -1.27901232409881E-13  4.18217934132335E-04
 Total energy (etotal) [Ha]= -8.44307459777221E+00
 
 Difference of energy with previous step (new-old):
           Absolute (Ha)=-6.21371E-03
           Relative     =-7.36225E-04
 fconv : at Broyd/MD step   2, gradients have not converged yet. 
  max grad (force/stress) = 4.1822E-02 > tolmxf= 1.0000E-08 ha/bohr (free atoms)
 
 EXIT:           1           1
 mover: previous time step took  8.52 [s]
 
--- Iteration: ( 3/15) Internal Cycle: (1/1)
--------------------------------------------------------------------------------
 
 Cartesian coordinates (xcart) [bohr]
  3.48997423851759E-11  5.38522266408943E-11 -1.96831003328328E-11
  2.44039661400430E+00  2.44039661414338E+00  2.44039661499602E+00
 Reduced coordinates (xred)
  1.11083449332278E-11 -7.48460418116356E-14 -3.95792065343974E-12
  2.49999999988892E-01  2.50000000000075E-01  2.50000000003958E-01
 Scale of Primitive Cell (acell) [bohr]
  6.90248397579280E+00  6.90248397837270E+00  6.90248397782834E+00
 Real space primitive translations (rprimd) [bohr]
  4.88079322638342E+00  4.88079322624573E+00  3.84371499627431E-09
  2.06946554331200E-09  4.88079322801998E+00  4.88079322825769E+00
  4.88079322770390E+00  2.52323525028949E-09  4.88079322780392E+00
 Unitary Cell Volume (ucvol) [Bohr^3]=  2.32541903631201E+02
 Angles (23,13,12)= [degrees]
  5.99999999677283E+01  5.99999999567202E+01  5.99999999611954E+01
 Lengths [Bohr]
  6.90248397579280E+00  6.90248397837270E+00  6.90248397782834E+00
 
---SELF-CONSISTENT-FIELD CONVERGENCE--------------------------------------------
 
 getcut: wavevector=  0.0000  0.0000  0.0000  ngfft=  32  32  32
         ecut(hartree)=     16.000   => boxcut(ratio)=   2.57466
 
 getcut : COMMENT -
  Note that boxcut > 2.2 ; recall that boxcut=Gcut(box)/Gcut(sphere) = 2
  is sufficient for exact treatment of convolution.
  Such a large boxcut is a waste : you could raise ecut
  e.g. ecut=   26.515444 Hartrees makes boxcut=2
 
 
 ITER STEP NUMBER     1
 vtorho: nnsclo_now=2, note that nnsclo,dbl_nnsclo,istep=0 0 1
 Total charge density [el/Bohr^3]
      Maximum=    1.1073E-01  at reduced coord.    0.1250    0.1250    0.1250
      Minimum=    1.4969E-03  at reduced coord.    0.0000    0.0000    0.0000
   Integrated=    8.0000E+00
 ETOT  1  -8.4299584737725    -8.430E+00 2.203E-01 1.107E+02
 scprqt: <Vxc>= -3.5370657E-01 hartree
 
 Simple mixing update:
  residual square of the potential:    39.6017604347353
 scfcv_core: previous iteration took  1.69 [s]
 
 ITER STEP NUMBER     2
 vtorho: nnsclo_now=2, note that nnsclo,dbl_nnsclo,istep=0 0 2
 Total charge density [el/Bohr^3]
      Maximum=    1.0003E-01  at reduced coord.    0.6250    0.1250    0.1250
      Minimum=    1.4547E-03  at reduced coord.    0.0000    0.0000    0.0000
   Integrated=    8.0000E+00
 ETOT  2  -8.4476894141007    -1.773E-02 2.576E-05 7.510E+00
 scprqt: <Vxc>= -3.6054904E-01 hartree
 
 Pulay update with  1 previous iterations:
 mixing of old trial potential: alpha(m:m-4)=   1.29     -0.286
 scfcv_core: previous iteration took  1.76 [s]
 
 ITER STEP NUMBER     3
 vtorho: nnsclo_now=1, note that nnsclo,dbl_nnsclo,istep=0 0 3
 Total charge density [el/Bohr^3]
      Maximum=    9.8170E-02  at reduced coord.    0.1250    0.6250    0.1250
      Minimum=    1.4486E-03  at reduced coord.    0.0000    0.0000    0.0000
   Integrated=    8.0000E+00
 ETOT  3  -8.4486244166579    -9.350E-04 5.049E-05 1.419E-01
 scprqt: <Vxc>= -3.6241905E-01 hartree
 
 Pulay update with  2 previous iterations:
 mixing of old trial potential: alpha(m:m-4)=   1.32     -0.390      0.663E-01
 scfcv_core: previous iteration took  0.93 [s]
 
 ITER STEP NUMBER     4
 vtorho: nnsclo_now=1, note that nnsclo,dbl_nnsclo,istep=0 0 4
 Total charge density [el/Bohr^3]
      Maximum=    9.8193E-02  at reduced coord.    0.1250    0.1250    0.1250
      Minimum=    1.4494E-03  at reduced coord.    0.0000    0.0000    0.0000
   Integrated=    8.0000E+00
 ETOT  4  -8.4486335220979    -9.105E-06 7.708E-06 7.521E-04
 scprqt: <Vxc>= -3.6258286E-01 hartree
 
 Pulay update with  3 previous iterations:
 mixing of old trial potential: alpha(m:m-4)=   1.14     -0.178      0.435E-01 -0.862E-02
 scfcv_core: previous iteration took  0.93 [s]
 
 ITER STEP NUMBER     5
 vtorho: nnsclo_now=1, note that nnsclo,dbl_nnsclo,istep=0 0 5
 Total charge density [el/Bohr^3]
      Maximum=    9.8170E-02  at reduced coord.    0.1250    0.6250    0.1250
      Minimum=    1.4491E-03  at reduced coord.    0.0000    0.0000    0.0000
   Integrated=    8.0000E+00
 ETOT  5  -8.4486335809509    -5.885E-08 4.154E-07 7.318E-06
 scprqt: <Vxc>= -3.6259826E-01 hartree
 
 Pulay update with  4 previous iterations:
 mixing of old trial potential: alpha(m:m-4)=   1.12     -0.128      0.565E-02 -0.623E-03  0.433E-03
 scfcv_core: previous iteration took  0.98 [s]
 
 ITER STEP NUMBER     6
 vtorho: nnsclo_now=1, note that nnsclo,dbl_nnsclo,istep=0 0 6
 Total charge density [el/Bohr^3]
      Maximum=    9.8172E-02  at reduced coord.    0.1250    0.1250    0.1250
      Minimum=    1.4491E-03  at reduced coord.    0.0000    0.0000    0.0000
   Integrated=    8.0000E+00
 ETOT  6  -8.4486335816879    -7.370E-10 6.100E-08 5.122E-08
 scprqt: <Vxc>= -3.6259678E-01 hartree
 
 Pulay update with  5 previous iterations:
 mixing of old trial potential: alpha(m:m-4)=   1.14     -0.147      0.811E-02  0.701E-03 -0.294E-03
 scfcv_core: previous iteration took  0.88 [s]
 
 ITER STEP NUMBER     7
 vtorho: nnsclo_now=1, note that nnsclo,dbl_nnsclo,istep=0 0 7
 Total charge density [el/Bohr^3]
      Maximum=    9.8172E-02  at reduced coord.    0.6250    0.1250    0.1250
      Minimum=    1.4491E-03  at reduced coord.    0.0000    0.0000    0.0000
   Integrated=    8.0000E+00
 ETOT  7  -8.4486335816913    -3.382E-12 3.344E-08 2.457E-10
 scprqt: <Vxc>= -3.6259686E-01 hartree
 
 Pulay update with  6 previous iterations:
 mixing of old trial potential: alpha(m:m-4)=   1.14     -0.148      0.126E-01 -0.275E-03 -0.136E-03
 scfcv_core: previous iteration took  0.94 [s]
 
 ITER STEP NUMBER     8
 vtorho: nnsclo_now=1, note that nnsclo,dbl_nnsclo,istep=0 0 8
 Total charge density [el/Bohr^3]
      Maximum=    9.8172E-02  at reduced coord.    0.6250    0.1250    0.1250
      Minimum=    1.4491E-03  at reduced coord.    0.0000    0.0000    0.0000
   Integrated=    8.0000E+00
 ETOT  8  -8.4486335816913     1.421E-14 7.272E-09 9.819E-13
 scprqt: <Vxc>= -3.6259686E-01 hartree
 
 At SCF step    8       vres2   =  9.82E-13 < tolvrs=  1.00E-10 =>converged.
 
 Cartesian components of stress tensor (hartree/bohr^3)
  sigma(1 1)= -7.35798704E-04  sigma(3 2)=  8.93065071E-12
  sigma(2 2)= -7.35798704E-04  sigma(3 1)=  4.03058904E-12
  sigma(3 3)= -7.35798704E-04  sigma(2 1)= -1.56894272E-13
 
 
   fftdatar_write: About to write data to: opto_TIM3_DEN with iomode: IO_MODE_FORTRAN
 IO operation completed. cpu:  0.00 [s] , wall:  0.00 [s]
- Creating HDf5 file with MPI-IO support: opto_GSR.nc
 Write iteration in HIST netCDF file
 
---OUTPUT-----------------------------------------------------------------------
 
 Cartesian coordinates (xcart) [bohr]
  3.48997423851759E-11  5.38522266408943E-11 -1.96831003328328E-11
  2.44039661400430E+00  2.44039661414338E+00  2.44039661499602E+00
 Reduced coordinates (xred)
  1.11083449332278E-11 -7.48460418116356E-14 -3.95792065343974E-12
  2.49999999988892E-01  2.50000000000075E-01  2.50000000003958E-01
 Cartesian forces (fcart) [Ha/bohr]; max,rms= 4.32103E-10 2.78512E-10 (free atoms)
  4.32102840889430E-10  2.14367234472072E-10 -6.34608646987982E-12
 -4.32102840889430E-10 -2.14367234472072E-10  6.34608646987982E-12
 Reduced forces (fred)
 -3.15528676483009E-09 -1.01530821134675E-09 -2.07803068416040E-09
  3.15528676483009E-09  1.01530821134675E-09  2.07803068416040E-09
 Scale of Primitive Cell (acell) [bohr]
  6.90248397579280E+00  6.90248397837270E+00  6.90248397782834E+00
 Real space primitive translations (rprimd) [bohr]
  4.88079322638342E+00  4.88079322624573E+00  3.84371499627431E-09
  2.06946554331200E-09  4.88079322801998E+00  4.88079322825769E+00
  4.88079322770390E+00  2.52323525028949E-09  4.88079322780392E+00
 Unitary Cell Volume (ucvol) [Bohr^3]=  2.32541903631201E+02
 Angles (23,13,12)= [degrees]
  5.99999999677283E+01  5.99999999567202E+01  5.99999999611954E+01
 Lengths [Bohr]
  6.90248397579280E+00  6.90248397837270E+00  6.90248397782834E+00
 Stress tensor in cartesian coordinates (strten) [Ha/bohr^3]
 -7.35798704431233E-04 -1.56894271576723E-13  4.03058904098662E-12
 -1.56894271576723E-13 -7.35798704354330E-04  8.93065071473313E-12
  4.03058904098662E-12  8.93065071473313E-12 -7.35798704466262E-04
 Total energy (etotal) [Ha]= -8.44863358169127E+00
 
 Difference of energy with previous step (new-old):
           Absolute (Ha)=-5.55898E-03
           Relative     =-6.58191E-04
 fconv : at Broyd/MD step   3, gradients have not converged yet. 
  max grad (force/stress) = 7.3580E-02 > tolmxf= 1.0000E-08 ha/bohr (free atoms)
 
 EXIT:           1           1
 mover: previous time step took  9.53 [s]
 
--- Iteration: ( 4/15) Internal Cycle: (1/1)
--------------------------------------------------------------------------------
 
 Cartesian coordinates (xcart) [bohr]
  2.04416247108490E-10  1.65583056005864E-10 -7.97000761026852E-11
  2.63247364378399E+00  2.63247364353495E+00  2.63247364456697E+00
 Reduced coordinates (xred)
  4.27069213484426E-11 -1.12568332439606E-11 -3.88103459203611E-12
  2.49999999957293E-01  2.50000000011257E-01  2.50000000003881E-01
 Scale of Primitive Cell (acell) [bohr]
  7.44575985773894E+00  7.44575985916107E+00  7.44575985978407E+00
 Real space primitive translations (rprimd) [bohr]
  5.26494728662901E+00  5.26494728635857E+00  2.39030300267851E-09
  1.37683780698636E-09  5.26494728737204E+00  5.26494728762673E+00
  5.26494728794778E+00  1.07152780192149E-09  5.26494728793204E+00
 Unitary Cell Volume (ucvol) [Bohr^3]=  2.91885201958058E+02
 Angles (23,13,12)= [degrees]
  5.99999999838662E+01  5.99999999773503E+01  5.99999999779807E+01
 Lengths [Bohr]
  7.44575985773894E+00  7.44575985916107E+00  7.44575985978407E+00
 
---SELF-CONSISTENT-FIELD CONVERGENCE--------------------------------------------
 
 getcut: wavevector=  0.0000  0.0000  0.0000  ngfft=  32  32  32
         ecut(hartree)=     16.000   => boxcut(ratio)=   2.38680
 
 getcut : COMMENT -
  Note that boxcut > 2.2 ; recall that boxcut=Gcut(box)/Gcut(sphere) = 2
  is sufficient for exact treatment of convolution.
  Such a large boxcut is a waste : you could raise ecut
  e.g. ecut=   22.787237 Hartrees makes boxcut=2
 
 
 ITER STEP NUMBER     1
 vtorho: nnsclo_now=2, note that nnsclo,dbl_nnsclo,istep=0 0 1
 Total charge density [el/Bohr^3]
      Maximum=    7.4055E-02  at reduced coord.    0.1563    0.1563    0.1563
      Minimum=    1.4838E-03  at reduced coord.    0.0000    0.0000    0.0000
   Integrated=    8.0000E+00
 ETOT  1  -8.4532324948987    -8.453E+00 8.596E-05 4.045E+01
 scprqt: <Vxc>= -3.3648709E-01 hartree
 
 Simple mixing update:
  residual square of the potential:    12.8452415827906
 scfcv_core: previous iteration took  1.72 [s]
 
 ITER STEP NUMBER     2
 vtorho: nnsclo_now=2, note that nnsclo,dbl_nnsclo,istep=0 0 2
 Total charge density [el/Bohr^3]
      Maximum=    7.9168E-02  at reduced coord.    0.1563    0.1563    0.1563
      Minimum=    1.5035E-03  at reduced coord.    0.0000    0.0000    0.0000
   Integrated=    8.0000E+00
 ETOT  2  -8.4607203544011    -7.488E-03 4.985E-06 3.384E+00
 scprqt: <Vxc>= -3.3235483E-01 hartree
 
 Pulay update with  1 previous iterations:
 mixing of old trial potential: alpha(m:m-4)=   1.34     -0.340
 scfcv_core: previous iteration took  1.79 [s]
 
 ITER STEP NUMBER     3
 vtorho: nnsclo_now=1, note that nnsclo,dbl_nnsclo,istep=0 0 3
 Total charge density [el/Bohr^3]
      Maximum=    8.0238E-02  at reduced coord.    0.1563    0.1563    0.1563
      Minimum=    1.5008E-03  at reduced coord.    0.0000    0.0000    0.0000
   Integrated=    8.0000E+00
 ETOT  3  -8.4611746110842    -4.543E-04 2.631E-05 1.004E-01
 scprqt: <Vxc>= -3.3096582E-01 hartree
 
 Pulay update with  2 previous iterations:
 mixing of old trial potential: alpha(m:m-4)=   1.38     -0.454      0.740E-01
 scfcv_core: previous iteration took  0.92 [s]
 
 ITER STEP NUMBER     4
 vtorho: nnsclo_now=1, note that nnsclo,dbl_nnsclo,istep=0 0 4
 Total charge density [el/Bohr^3]
      Maximum=    8.0279E-02  at reduced coord.    0.1563    0.1563    0.5313
      Minimum=    1.5024E-03  at reduced coord.    0.0000    0.0000    0.0000
   Integrated=    8.0000E+00
 ETOT  4  -8.4611826033716    -7.992E-06 6.067E-06 4.028E-04
 scprqt: <Vxc>= -3.3075149E-01 hartree
 
 Pulay update with  3 previous iterations:
 mixing of old trial potential: alpha(m:m-4)=   1.23     -0.309      0.887E-01 -0.133E-01
 scfcv_core: previous iteration took  0.88 [s]
 
 ITER STEP NUMBER     5
 vtorho: nnsclo_now=1, note that nnsclo,dbl_nnsclo,istep=0 0 5
 Total charge density [el/Bohr^3]
      Maximum=    8.0280E-02  at reduced coord.    0.0938    0.0938    0.7188
      Minimum=    1.5030E-03  at reduced coord.    0.2500    0.2500    0.2500
   Integrated=    8.0000E+00
 ETOT  5  -8.4611826236335    -2.026E-08 6.066E-08 2.733E-06
 scprqt: <Vxc>= -3.3074974E-01 hartree
 
 Pulay update with  4 previous iterations:
 mixing of old trial potential: alpha(m:m-4)=   1.19     -0.225      0.472E-01 -0.131E-01  0.183E-02
 scfcv_core: previous iteration took  1.00 [s]
 
 ITER STEP NUMBER     6
 vtorho: nnsclo_now=1, note that nnsclo,dbl_nnsclo,istep=0 0 6
 Total charge density [el/Bohr^3]
      Maximum=    8.0281E-02  at reduced coord.    0.1563    0.5313    0.1563
      Minimum=    1.5030E-03  at reduced coord.    0.0000    0.0000    0.0000
   Integrated=    8.0000E+00
 ETOT  6  -8.4611826237498    -1.163E-10 1.679E-08 3.174E-08
 scprqt: <Vxc>= -3.3074933E-01 hartree
 
 Pulay update with  5 previous iterations:
 mixing of old trial potential: alpha(m:m-4)=   1.16     -0.180      0.264E-01 -0.529E-02  0.141E-02
 scfcv_core: previous iteration took  0.94 [s]
 
 ITER STEP NUMBER     7
 vtorho: nnsclo_now=1, note that nnsclo,dbl_nnsclo,istep=0 0 7
 Total charge density [el/Bohr^3]
      Maximum=    8.0281E-02  at reduced coord.    0.0938    0.0938    0.7188
      Minimum=    1.5030E-03  at reduced coord.    0.2500    0.2500    0.2500
   Integrated=    8.0000E+00
 ETOT  7  -8.4611826237523    -2.480E-12 4.681E-10 2.852E-10
 scprqt: <Vxc>= -3.3074941E-01 hartree
 
 Pulay update with  6 previous iterations:
 mixing of old trial potential: alpha(m:m-4)=   1.17     -0.187      0.169E-01 -0.244E-02  0.484E-03
 scfcv_core: previous iteration took  1.01 [s]
 
 ITER STEP NUMBER     8
 vtorho: nnsclo_now=1, note that nnsclo,dbl_nnsclo,istep=0 0 8
 Total charge density [el/Bohr^3]
      Maximum=    8.0281E-02  at reduced coord.    0.5313    0.1563    0.1563
      Minimum=    1.5030E-03  at reduced coord.    0.0000    0.0000    0.0000
   Integrated=    8.0000E+00
 ETOT  8  -8.4611826237523    -3.375E-14 1.901E-10 1.028E-12
 scprqt: <Vxc>= -3.3074940E-01 hartree
 
 At SCF step    8       vres2   =  1.03E-12 < tolvrs=  1.00E-10 =>converged.
 
 Cartesian components of stress tensor (hartree/bohr^3)
  sigma(1 1)=  1.49406824E-04  sigma(3 2)=  2.22028951E-12
  sigma(2 2)=  1.49406824E-04  sigma(3 1)=  2.22812568E-12
  sigma(3 3)=  1.49406824E-04  sigma(2 1)=  8.76704718E-13
 
 
   fftdatar_write: About to write data to: opto_TIM4_DEN with iomode: IO_MODE_FORTRAN
 IO operation completed. cpu:  0.00 [s] , wall:  0.00 [s]
- Creating HDf5 file with MPI-IO support: opto_GSR.nc
 Write iteration in HIST netCDF file
 
---OUTPUT-----------------------------------------------------------------------
 
 Cartesian coordinates (xcart) [bohr]
  2.04416247108490E-10  1.65583056005864E-10 -7.97000761026852E-11
  2.63247364378399E+00  2.63247364353495E+00  2.63247364456697E+00
 Reduced coordinates (xred)
  4.27069213484426E-11 -1.12568332439606E-11 -3.88103459203611E-12
  2.49999999957293E-01  2.50000000011257E-01  2.50000000003881E-01
 Cartesian forces (fcart) [Ha/bohr]; max,rms= 2.43026E-11 1.41464E-11 (free atoms)
  2.68628617205730E-12  2.43026024105075E-11 -1.59090293282504E-12
 -2.68628617205730E-12 -2.43026024105075E-11  1.59090293282504E-12
 Reduced forces (fred)
 -1.42095075701532E-10 -1.19575900559927E-10 -5.76713504072531E-12
  1.42095075701532E-10  1.19575900559927E-10  5.76713504072531E-12
 Scale of Primitive Cell (acell) [bohr]
  7.44575985773894E+00  7.44575985916107E+00  7.44575985978407E+00
 Real space primitive translations (rprimd) [bohr]
  5.26494728662901E+00  5.26494728635857E+00  2.39030300267851E-09
  1.37683780698636E-09  5.26494728737204E+00  5.26494728762673E+00
  5.26494728794778E+00  1.07152780192149E-09  5.26494728793204E+00
 Unitary Cell Volume (ucvol) [Bohr^3]=  2.91885201958058E+02
 Angles (23,13,12)= [degrees]
  5.99999999838662E+01  5.99999999773503E+01  5.99999999779807E+01
 Lengths [Bohr]
  7.44575985773894E+00  7.44575985916107E+00  7.44575985978407E+00
 Stress tensor in cartesian coordinates (strten) [Ha/bohr^3]
  1.49406823957098E-04  8.76704717975561E-13  2.22812568390638E-12
  8.76704717975561E-13  1.49406823942459E-04  2.22028950972308E-12
  2.22812568390638E-12  2.22028950972308E-12  1.49406824043652E-04
 Total energy (etotal) [Ha]= -8.46118262375230E+00
 
 Difference of energy with previous step (new-old):
           Absolute (Ha)=-1.25490E-02
           Relative     =-1.48423E-03
 fconv : at Broyd/MD step   4, gradients have not converged yet. 
  max grad (force/stress) = 1.4941E-02 > tolmxf= 1.0000E-08 ha/bohr (free atoms)
 
 EXIT:           1           1
 mover: previous time step took  9.72 [s]
 
--- Iteration: ( 5/15) Internal Cycle: (1/1)
--------------------------------------------------------------------------------
 
 Cartesian coordinates (xcart) [bohr]
  2.38966409589247E-10  1.92371954176060E-10 -6.89123016461928E-11
  2.59346164085580E+00  2.59346164059787E+00  2.59346164140107E+00
 Reduced coordinates (xred)
  4.82222927100913E-11 -1.11344192727352E-11 -2.15135689078582E-12
  2.49999999951778E-01  2.50000000011135E-01  2.50000000002152E-01
 Scale of Primitive Cell (acell) [bohr]
  7.33541725141860E+00  7.33541725209064E+00  7.33541725277972E+00
 Real space primitive translations (rprimd) [bohr]
  5.18692328143266E+00  5.18692328118909E+00  1.14825898941523E-09
  6.72625867238963E-10  5.18692328166472E+00  5.18692328190745E+00
  5.18692328227376E+00  3.07164862303882E-10  5.18692328227291E+00
 Unitary Cell Volume (ucvol) [Bohr^3]=  2.79099763925565E+02
 Angles (23,13,12)= [degrees]
  5.99999999929801E+01  5.99999999899386E+01  5.99999999899380E+01
 Lengths [Bohr]
  7.33541725141860E+00  7.33541725209064E+00  7.33541725277972E+00
 
---SELF-CONSISTENT-FIELD CONVERGENCE--------------------------------------------
 
 getcut: wavevector=  0.0000  0.0000  0.0000  ngfft=  32  32  32
         ecut(hartree)=     16.000   => boxcut(ratio)=   2.42270
 
 getcut : COMMENT -
  Note that boxcut > 2.2 ; recall that boxcut=Gcut(box)/Gcut(sphere) = 2
  is sufficient for exact treatment of convolution.
  Such a large boxcut is a waste : you could raise ecut
  e.g. ecut=   23.477944 Hartrees makes boxcut=2
 
 
 ITER STEP NUMBER     1
 vtorho: nnsclo_now=2, note that nnsclo,dbl_nnsclo,istep=0 0 1
 Total charge density [el/Bohr^3]
      Maximum=    8.4254E-02  at reduced coord.    0.5313    0.1563    0.1563
      Minimum=    1.4949E-03  at reduced coord.    0.2500    0.2500    0.2500
   Integrated=    8.0000E+00
 ETOT  1  -8.4620982141496    -8.462E+00 7.604E-06 1.526E+00
 scprqt: <Vxc>= -3.3575879E-01 hartree
 
 Simple mixing update:
  residual square of the potential:   0.494865556683315
 scfcv_core: previous iteration took  1.68 [s]
 
 ITER STEP NUMBER     2
 vtorho: nnsclo_now=2, note that nnsclo,dbl_nnsclo,istep=0 0 2
 Total charge density [el/Bohr^3]
      Maximum=    8.3222E-02  at reduced coord.    0.5313    0.1563    0.1563
      Minimum=    1.4902E-03  at reduced coord.    0.0000    0.0000    0.0000
   Integrated=    8.0000E+00
 ETOT  2  -8.4623653443475    -2.671E-04 4.222E-07 1.331E-01
 scprqt: <Vxc>= -3.3659135E-01 hartree
 
 Pulay update with  1 previous iterations:
 mixing of old trial potential: alpha(m:m-4)=   1.34     -0.343
 scfcv_core: previous iteration took  1.80 [s]
 
 ITER STEP NUMBER     3
 vtorho: nnsclo_now=1, note that nnsclo,dbl_nnsclo,istep=0 0 3
 Total charge density [el/Bohr^3]
      Maximum=    8.2997E-02  at reduced coord.    0.7188    0.0938    0.0938
      Minimum=    1.4899E-03  at reduced coord.    0.0000    0.0000    0.0000
   Integrated=    8.0000E+00
 ETOT  3  -8.4623830665565    -1.772E-05 9.870E-07 3.335E-03
 scprqt: <Vxc>= -3.3687021E-01 hartree
 
 Pulay update with  2 previous iterations:
 mixing of old trial potential: alpha(m:m-4)=   1.38     -0.466      0.859E-01
 scfcv_core: previous iteration took  1.00 [s]
 
 ITER STEP NUMBER     4
 vtorho: nnsclo_now=1, note that nnsclo,dbl_nnsclo,istep=0 0 4
 Total charge density [el/Bohr^3]
      Maximum=    8.2994E-02  at reduced coord.    0.1563    0.1563    0.1563
      Minimum=    1.4898E-03  at reduced coord.    0.0000    0.0000    0.0000
   Integrated=    8.0000E+00
 ETOT  4  -8.4623833042554    -2.377E-07 2.131E-07 1.289E-05
 scprqt: <Vxc>= -3.3690432E-01 hartree
 
 Pulay update with  3 previous iterations:
 mixing of old trial potential: alpha(m:m-4)=   1.21     -0.276      0.816E-01 -0.151E-01
 scfcv_core: previous iteration took  0.93 [s]
 
 ITER STEP NUMBER     5
 vtorho: nnsclo_now=1, note that nnsclo,dbl_nnsclo,istep=0 0 5
 Total charge density [el/Bohr^3]
      Maximum=    8.2992E-02  at reduced coord.    0.5313    0.1563    0.1563
      Minimum=    1.4897E-03  at reduced coord.    0.0000    0.0000    0.0000
   Integrated=    8.0000E+00
 ETOT  5  -8.4623833049866    -7.312E-10 1.414E-09 1.062E-07
 scprqt: <Vxc>= -3.3690561E-01 hartree
 
 Pulay update with  4 previous iterations:
 mixing of old trial potential: alpha(m:m-4)=   1.16     -0.180      0.295E-01 -0.813E-02  0.162E-02
 scfcv_core: previous iteration took  1.00 [s]
 
 ITER STEP NUMBER     6
 vtorho: nnsclo_now=1, note that nnsclo,dbl_nnsclo,istep=0 0 6
 Total charge density [el/Bohr^3]
      Maximum=    8.2993E-02  at reduced coord.    0.0938    0.7188    0.0938
      Minimum=    1.4897E-03  at reduced coord.    0.2500    0.2500    0.2500
   Integrated=    8.0000E+00
 ETOT  6  -8.4623833049923    -5.713E-12 5.693E-10 1.144E-09
 scprqt: <Vxc>= -3.3690549E-01 hartree
 
 Pulay update with  5 previous iterations:
 mixing of old trial potential: alpha(m:m-4)=   1.16     -0.175      0.194E-01 -0.276E-02  0.710E-03
 scfcv_core: previous iteration took  0.97 [s]
 
 ITER STEP NUMBER     7
 vtorho: nnsclo_now=1, note that nnsclo,dbl_nnsclo,istep=0 0 7
 Total charge density [el/Bohr^3]
      Maximum=    8.2993E-02  at reduced coord.    0.5313    0.1563    0.1563
      Minimum=    1.4897E-03  at reduced coord.    0.0000    0.0000    0.0000
   Integrated=    8.0000E+00
 ETOT  7  -8.4623833049924    -8.171E-14 1.195E-11 9.491E-12
 scprqt: <Vxc>= -3.3690550E-01 hartree
 
 At SCF step    7       vres2   =  9.49E-12 < tolvrs=  1.00E-10 =>converged.
 
 Cartesian components of stress tensor (hartree/bohr^3)
  sigma(1 1)=  3.34588633E-05  sigma(3 2)= -8.54630201E-13
  sigma(2 2)=  3.34588633E-05  sigma(3 1)= -1.20976362E-13
  sigma(3 3)=  3.34588633E-05  sigma(2 1)=  4.63231924E-13
 
 
   fftdatar_write: About to write data to: opto_TIM5_DEN with iomode: IO_MODE_FORTRAN
 IO operation completed. cpu:  0.00 [s] , wall:  0.00 [s]
- Creating HDf5 file with MPI-IO support: opto_GSR.nc
 Write iteration in HIST netCDF file
 
---OUTPUT-----------------------------------------------------------------------
 
 Cartesian coordinates (xcart) [bohr]
  2.38966409589247E-10  1.92371954176060E-10 -6.89123016461928E-11
  2.59346164085580E+00  2.59346164059787E+00  2.59346164140107E+00
 Reduced coordinates (xred)
  4.82222927100913E-11 -1.11344192727352E-11 -2.15135689078582E-12
  2.49999999951778E-01  2.50000000011135E-01  2.50000000002152E-01
 Cartesian forces (fcart) [Ha/bohr]; max,rms= 7.51313E-11 4.60803E-11 (free atoms)
 -7.51313426217711E-11 -9.13351892620949E-12  2.53384712337232E-11
  7.51313426217711E-11  9.13351892620949E-12 -2.53384712337232E-11
 Reduced forces (fred)
  4.37075372138601E-10 -8.40538443577243E-11  2.58271803896755E-10
 -4.37075372138601E-10  8.40538443577243E-11 -2.58271803896755E-10
 Scale of Primitive Cell (acell) [bohr]
  7.33541725141860E+00  7.33541725209064E+00  7.33541725277972E+00
 Real space primitive translations (rprimd) [bohr]
  5.18692328143266E+00  5.18692328118909E+00  1.14825898941523E-09
  6.72625867238963E-10  5.18692328166472E+00  5.18692328190745E+00
  5.18692328227376E+00  3.07164862303882E-10  5.18692328227291E+00
 Unitary Cell Volume (ucvol) [Bohr^3]=  2.79099763925565E+02
 Angles (23,13,12)= [degrees]
  5.99999999929801E+01  5.99999999899386E+01  5.99999999899380E+01
 Lengths [Bohr]
  7.33541725141860E+00  7.33541725209064E+00  7.33541725277972E+00
 Stress tensor in cartesian coordinates (strten) [Ha/bohr^3]
  3.34588633231435E-05  4.63231924258601E-13 -1.20976361518682E-13
  4.63231924258601E-13  3.34588632631056E-05 -8.54630200840875E-13
 -1.20976361518682E-13 -8.54630200840875E-13  3.34588632940765E-05
 Total energy (etotal) [Ha]= -8.46238330499240E+00
 
 Difference of energy with previous step (new-old):
           Absolute (Ha)=-1.20068E-03
           Relative     =-1.41895E-04
 fconv : at Broyd/MD step   5, gradients have not converged yet. 
  max grad (force/stress) = 3.3459E-03 > tolmxf= 1.0000E-08 ha/bohr (free atoms)
 
 EXIT:           1           1
 mover: previous time step took  8.79 [s]
 
--- Iteration: ( 6/15) Internal Cycle: (1/1)
--------------------------------------------------------------------------------
 
 Cartesian coordinates (xcart) [bohr]
  1.67863400133509E-10  1.84226136326993E-10 -3.87761496793791E-11
  2.58283151106561E+00  2.58283151086621E+00  2.58283151171072E+00
 Reduced coordinates (xred)
  3.78330607869357E-11 -2.16946144514042E-12 -5.33705796287911E-12
  2.49999999962167E-01  2.50000000002170E-01  2.50000000005337E-01
 Scale of Primitive Cell (acell) [bohr]
  7.30535070372824E+00  7.30535070496048E+00  7.30535070531778E+00
 Real space primitive translations (rprimd) [bohr]
  5.16566302166558E+00  5.16566302143873E+00  1.46348987408188E-09
  5.97780143256400E-10  5.16566302230444E+00  5.16566302254253E+00
  5.16566302267051E+00  4.58557592629726E-10  5.16566302268175E+00
 Unitary Cell Volume (ucvol) [Bohr^3]=  2.75681873363718E+02
 Angles (23,13,12)= [degrees]
  5.99999999924371E+01  5.99999999870013E+01  5.99999999882888E+01
 Lengths [Bohr]
  7.30535070372824E+00  7.30535070496048E+00  7.30535070531778E+00
 
---SELF-CONSISTENT-FIELD CONVERGENCE--------------------------------------------
 
 getcut: wavevector=  0.0000  0.0000  0.0000  ngfft=  32  32  32
         ecut(hartree)=     16.000   => boxcut(ratio)=   2.43267
 
 getcut : COMMENT -
  Note that boxcut > 2.2 ; recall that boxcut=Gcut(box)/Gcut(sphere) = 2
  is sufficient for exact treatment of convolution.
  Such a large boxcut is a waste : you could raise ecut
  e.g. ecut=   23.671598 Hartrees makes boxcut=2
 
 
 ITER STEP NUMBER     1
 vtorho: nnsclo_now=2, note that nnsclo,dbl_nnsclo,istep=0 0 1
 Total charge density [el/Bohr^3]
      Maximum=    8.4088E-02  at reduced coord.    0.7188    0.0938    0.0938
      Minimum=    1.4876E-03  at reduced coord.    0.0000    0.0000    0.0000
   Integrated=    8.0000E+00
 ETOT  1  -8.4624148717378    -8.462E+00 2.136E-07 1.148E-01
 scprqt: <Vxc>= -3.3829988E-01 hartree
 
 Simple mixing update:
  residual square of the potential:   3.748404961258492E-002
 scfcv_core: previous iteration took  1.67 [s]
 
 ITER STEP NUMBER     2
 vtorho: nnsclo_now=2, note that nnsclo,dbl_nnsclo,istep=0 0 2
 Total charge density [el/Bohr^3]
      Maximum=    8.3802E-02  at reduced coord.    0.1563    0.1563    0.5313
      Minimum=    1.4864E-03  at reduced coord.    0.0000    0.0000    0.0000
   Integrated=    8.0000E+00
 ETOT  2  -8.4624350002727    -2.013E-05 2.192E-08 9.662E-03
 scprqt: <Vxc>= -3.3852558E-01 hartree
 
 Pulay update with  1 previous iterations:
 mixing of old trial potential: alpha(m:m-4)=   1.34     -0.336
 scfcv_core: previous iteration took  1.77 [s]
 
 ITER STEP NUMBER     3
 vtorho: nnsclo_now=1, note that nnsclo,dbl_nnsclo,istep=0 0 3
 Total charge density [el/Bohr^3]
      Maximum=    8.3742E-02  at reduced coord.    0.7188    0.0938    0.0938
      Minimum=    1.4864E-03  at reduced coord.    0.2500    0.2500    0.2500
   Integrated=    8.0000E+00
 ETOT  3  -8.4624362770681    -1.277E-06 7.191E-08 2.421E-04
 scprqt: <Vxc>= -3.3859954E-01 hartree
 
 Pulay update with  2 previous iterations:
 mixing of old trial potential: alpha(m:m-4)=   1.37     -0.455      0.811E-01
 scfcv_core: previous iteration took  0.92 [s]
 
 ITER STEP NUMBER     4
 vtorho: nnsclo_now=1, note that nnsclo,dbl_nnsclo,istep=0 0 4
 Total charge density [el/Bohr^3]
      Maximum=    8.3741E-02  at reduced coord.    0.5313    0.1563    0.1563
      Minimum=    1.4863E-03  at reduced coord.    0.0000    0.0000    0.0000
   Integrated=    8.0000E+00
 ETOT  4  -8.4624362945333    -1.747E-08 1.568E-08 9.027E-07
 scprqt: <Vxc>= -3.3860876E-01 hartree
 
 Pulay update with  3 previous iterations:
 mixing of old trial potential: alpha(m:m-4)=   1.21     -0.281      0.815E-01 -0.144E-01
 scfcv_core: previous iteration took  0.91 [s]
 
 ITER STEP NUMBER     5
 vtorho: nnsclo_now=1, note that nnsclo,dbl_nnsclo,istep=0 0 5
 Total charge density [el/Bohr^3]
      Maximum=    8.3741E-02  at reduced coord.    0.1563    0.5313    0.1563
      Minimum=    1.4863E-03  at reduced coord.    0.0000    0.0000    0.0000
   Integrated=    8.0000E+00
 ETOT  5  -8.4624362945833    -4.991E-11 9.121E-11 6.922E-09
 scprqt: <Vxc>= -3.3860905E-01 hartree
 
 Pulay update with  4 previous iterations:
 mixing of old trial potential: alpha(m:m-4)=   1.16     -0.189      0.323E-01 -0.886E-02  0.164E-02
 scfcv_core: previous iteration took  1.01 [s]
 
 ITER STEP NUMBER     6
 vtorho: nnsclo_now=1, note that nnsclo,dbl_nnsclo,istep=0 0 6
 Total charge density [el/Bohr^3]
      Maximum=    8.3741E-02  at reduced coord.    0.5313    0.1563    0.1563
      Minimum=    1.4863E-03  at reduced coord.    0.0000    0.0000    0.0000
   Integrated=    8.0000E+00
 ETOT  6  -8.4624362945836    -3.073E-13 3.601E-11 6.828E-11
 scprqt: <Vxc>= -3.3860903E-01 hartree
 
 At SCF step    6       vres2   =  6.83E-11 < tolvrs=  1.00E-10 =>converged.
 
 Cartesian components of stress tensor (hartree/bohr^3)
  sigma(1 1)= -2.85523454E-06  sigma(3 2)=  1.09862002E-12
  sigma(2 2)= -2.85523458E-06  sigma(3 1)=  8.82721914E-13
  sigma(3 3)= -2.85523452E-06  sigma(2 1)=  1.09959686E-12
 
 
   fftdatar_write: About to write data to: opto_TIM6_DEN with iomode: IO_MODE_FORTRAN
 IO operation completed. cpu:  0.00 [s] , wall:  0.00 [s]
- Creating HDf5 file with MPI-IO support: opto_GSR.nc
 Write iteration in HIST netCDF file
 
---OUTPUT-----------------------------------------------------------------------
 
 Cartesian coordinates (xcart) [bohr]
  1.67863400133509E-10  1.84226136326993E-10 -3.87761496793791E-11
  2.58283151106561E+00  2.58283151086621E+00  2.58283151171072E+00
 Reduced coordinates (xred)
  3.78330607869357E-11 -2.16946144514042E-12 -5.33705796287911E-12
  2.49999999962167E-01  2.50000000002170E-01  2.50000000005337E-01
 Cartesian forces (fcart) [Ha/bohr]; max,rms= 1.47091E-10 1.02961E-10 (free atoms)
  1.47091428750273E-10  1.57877831750180E-11  9.95884054089386E-11
 -1.47091428750273E-10 -1.57877831750180E-11 -9.95884054089386E-11
 Reduced forces (fred)
 -8.41379122182671E-10 -5.95994511134207E-10 -1.27426489776309E-09
  8.41379122182671E-10  5.95994511134207E-10  1.27426489776309E-09
 Scale of Primitive Cell (acell) [bohr]
  7.30535070372824E+00  7.30535070496048E+00  7.30535070531778E+00
 Real space primitive translations (rprimd) [bohr]
  5.16566302166558E+00  5.16566302143873E+00  1.46348987408188E-09
  5.97780143256400E-10  5.16566302230444E+00  5.16566302254253E+00
  5.16566302267051E+00  4.58557592629726E-10  5.16566302268175E+00
 Unitary Cell Volume (ucvol) [Bohr^3]=  2.75681873363718E+02
 Angles (23,13,12)= [degrees]
  5.99999999924371E+01  5.99999999870013E+01  5.99999999882888E+01
 Lengths [Bohr]
  7.30535070372824E+00  7.30535070496048E+00  7.30535070531778E+00
 Stress tensor in cartesian coordinates (strten) [Ha/bohr^3]
 -2.85523453743544E-06  1.09959685723666E-12  8.82721914128987E-13
  1.09959685723666E-12 -2.85523458441002E-06  1.09862001532497E-12
  8.82721914128987E-13  1.09862001532497E-12 -2.85523452187237E-06
 Total energy (etotal) [Ha]= -8.46243629458357E+00
 
 Difference of energy with previous step (new-old):
           Absolute (Ha)=-5.29896E-05
           Relative     =-6.26176E-06
 fconv : at Broyd/MD step   6, gradients have not converged yet. 
  max grad (force/stress) = 2.8552E-04 > tolmxf= 1.0000E-08 ha/bohr (free atoms)
 
 EXIT:           1           1
 mover: previous time step took  7.61 [s]
 
--- Iteration: ( 7/15) Internal Cycle: (1/1)
--------------------------------------------------------------------------------
 
 Cartesian coordinates (xcart) [bohr]
  2.81165338407971E-10  1.96357873241192E-10  3.68131611495989E-11
  2.58365787627650E+00  2.58365787615373E+00  2.58365787695638E+00
 Reduced coordinates (xred)
  4.26440023852116E-11 -4.64402664181146E-12  1.17682595824791E-11
  2.49999999957356E-01  2.50000000004644E-01  2.49999999988232E-01
 Scale of Primitive Cell (acell) [bohr]
  7.30768801812729E+00  7.30768801935296E+00  7.30768801978313E+00
 Real space primitive translations (rprimd) [bohr]
  5.16731575252447E+00  5.16731575230250E+00  9.88520040254593E-10
  1.26213373744064E-10  5.16731575316481E+00  5.16731575339552E+00
  5.16731575357997E+00 -6.69762702807254E-11  5.16731575358871E+00
 Unitary Cell Volume (ucvol) [Bohr^3]=  2.75946567635103E+02
 Angles (23,13,12)= [degrees]
  5.99999999988543E+01  5.99999999934180E+01  5.99999999943128E+01
 Lengths [Bohr]
  7.30768801812729E+00  7.30768801935296E+00  7.30768801978313E+00
 
---SELF-CONSISTENT-FIELD CONVERGENCE--------------------------------------------
 
 getcut: wavevector=  0.0000  0.0000  0.0000  ngfft=  32  32  32
         ecut(hartree)=     16.000   => boxcut(ratio)=   2.43190
 
 getcut : COMMENT -
  Note that boxcut > 2.2 ; recall that boxcut=Gcut(box)/Gcut(sphere) = 2
  is sufficient for exact treatment of convolution.
  Such a large boxcut is a waste : you could raise ecut
  e.g. ecut=   23.656458 Hartrees makes boxcut=2
 
 
 ITER STEP NUMBER     1
 vtorho: nnsclo_now=2, note that nnsclo,dbl_nnsclo,istep=0 0 1
 Total charge density [el/Bohr^3]
      Maximum=    8.3655E-02  at reduced coord.    0.1563    0.1563    0.5313
      Minimum=    1.4865E-03  at reduced coord.    0.0000    0.0000    0.0000
   Integrated=    8.0000E+00
 ETOT  1  -8.4624365358141    -8.462E+00 1.308E-09 6.968E-04
 scprqt: <Vxc>= -3.3850023E-01 hartree
 
 Simple mixing update:
  residual square of the potential:   2.275102138805477E-004
 scfcv_core: previous iteration took  1.68 [s]
 
 ITER STEP NUMBER     2
 vtorho: nnsclo_now=2, note that nnsclo,dbl_nnsclo,istep=0 0 2
 Total charge density [el/Bohr^3]
      Maximum=    8.3678E-02  at reduced coord.    0.1563    0.1563    0.1563
      Minimum=    1.4866E-03  at reduced coord.    0.0000    0.0000    0.0000
   Integrated=    8.0000E+00
 ETOT  2  -8.4624366583067    -1.225E-07 1.217E-10 5.846E-05
 scprqt: <Vxc>= -3.3848268E-01 hartree
 
 Pulay update with  1 previous iterations:
 mixing of old trial potential: alpha(m:m-4)=   1.34     -0.335
 scfcv_core: previous iteration took  1.75 [s]
 
 ITER STEP NUMBER     3
 vtorho: nnsclo_now=1, note that nnsclo,dbl_nnsclo,istep=0 0 3
 Total charge density [el/Bohr^3]
      Maximum=    8.3682E-02  at reduced coord.    0.1563    0.5313    0.1563
      Minimum=    1.4866E-03  at reduced coord.    0.0000    0.0000    0.0000
   Integrated=    8.0000E+00
 ETOT  3  -8.4624366660301    -7.723E-09 4.426E-10 1.474E-06
 scprqt: <Vxc>= -3.3847694E-01 hartree
 
 Pulay update with  2 previous iterations:
 mixing of old trial potential: alpha(m:m-4)=   1.37     -0.454      0.805E-01
 scfcv_core: previous iteration took  0.87 [s]
 
 ITER STEP NUMBER     4
 vtorho: nnsclo_now=1, note that nnsclo,dbl_nnsclo,istep=0 0 4
 Total charge density [el/Bohr^3]
      Maximum=    8.3682E-02  at reduced coord.    0.7188    0.0938    0.0938
      Minimum=    1.4866E-03  at reduced coord.    0.0000    0.0000    0.0000
   Integrated=    8.0000E+00
 ETOT  4  -8.4624366661370    -1.068E-10 9.964E-11 5.457E-09
 scprqt: <Vxc>= -3.3847621E-01 hartree
 
 Pulay update with  3 previous iterations:
 mixing of old trial potential: alpha(m:m-4)=   1.22     -0.283      0.821E-01 -0.143E-01
 scfcv_core: previous iteration took  0.87 [s]
 
 ITER STEP NUMBER     5
 vtorho: nnsclo_now=1, note that nnsclo,dbl_nnsclo,istep=0 0 5
 Total charge density [el/Bohr^3]
      Maximum=    8.3682E-02  at reduced coord.    0.0938    0.7188    0.0938
      Minimum=    1.4866E-03  at reduced coord.    0.0000    0.0000    0.0000
   Integrated=    8.0000E+00
 ETOT  5  -8.4624366661373    -3.251E-13 2.235E-12 4.125E-11
 scprqt: <Vxc>= -3.3847619E-01 hartree
 
 At SCF step    5       vres2   =  4.12E-11 < tolvrs=  1.00E-10 =>converged.
 
 Cartesian components of stress tensor (hartree/bohr^3)
  sigma(1 1)=  4.39062335E-08  sigma(3 2)=  1.72021385E-12
  sigma(2 2)=  4.39059748E-08  sigma(3 1)=  3.94082968E-14
  sigma(3 3)=  4.39062525E-08  sigma(2 1)= -5.79134883E-13
 
 
   fftdatar_write: About to write data to: opto_TIM7_DEN with iomode: IO_MODE_FORTRAN
 IO operation completed. cpu:  0.00 [s] , wall:  0.00 [s]
- Creating HDf5 file with MPI-IO support: opto_GSR.nc
 Write iteration in HIST netCDF file
 
---OUTPUT-----------------------------------------------------------------------
 
 Cartesian coordinates (xcart) [bohr]
  2.81165338407971E-10  1.96357873241192E-10  3.68131611495989E-11
  2.58365787627650E+00  2.58365787615373E+00  2.58365787695638E+00
 Reduced coordinates (xred)
  4.26440023852116E-11 -4.64402664181146E-12  1.17682595824791E-11
  2.49999999957356E-01  2.50000000004644E-01  2.49999999988232E-01
 Cartesian forces (fcart) [Ha/bohr]; max,rms= 4.56754E-11 3.41904E-11 (free atoms)
 -2.86604256700032E-11 -2.44801549626341E-11 -4.56754116939933E-11
  2.86604256700032E-11  2.44801549626341E-11  4.56754116939933E-11
 Reduced forces (fred)
  2.74594159441041E-10  3.62515964771150E-10  3.84116743465297E-10
 -2.74594159441041E-10 -3.62515964771150E-10 -3.84116743465297E-10
 Scale of Primitive Cell (acell) [bohr]
  7.30768801812729E+00  7.30768801935296E+00  7.30768801978313E+00
 Real space primitive translations (rprimd) [bohr]
  5.16731575252447E+00  5.16731575230250E+00  9.88520040254593E-10
  1.26213373744064E-10  5.16731575316481E+00  5.16731575339552E+00
  5.16731575357997E+00 -6.69762702807254E-11  5.16731575358871E+00
 Unitary Cell Volume (ucvol) [Bohr^3]=  2.75946567635103E+02
 Angles (23,13,12)= [degrees]
  5.99999999988543E+01  5.99999999934180E+01  5.99999999943128E+01
 Lengths [Bohr]
  7.30768801812729E+00  7.30768801935296E+00  7.30768801978313E+00
 Stress tensor in cartesian coordinates (strten) [Ha/bohr^3]
  4.39062335039556E-08 -5.79134882892337E-13  3.94082968249564E-14
 -5.79134882892337E-13  4.39059747760207E-08  1.72021385420020E-12
  3.94082968249564E-14  1.72021385420020E-12  4.39062524722894E-08
 Total energy (etotal) [Ha]= -8.46243666613731E+00
 
 Difference of energy with previous step (new-old):
           Absolute (Ha)=-3.71554E-07
           Relative     =-4.39062E-08
 fconv : at Broyd/MD step   7, gradients have not converged yet. 
  max grad (force/stress) = 4.3906E-06 > tolmxf= 1.0000E-08 ha/bohr (free atoms)
 
 EXIT:           1           1
 mover: previous time step took  6.60 [s]
 
--- Iteration: ( 8/15) Internal Cycle: (1/1)
--------------------------------------------------------------------------------
 
 Cartesian coordinates (xcart) [bohr]
  2.57849450452589E-10  1.76343273294283E-10 -4.50395862198733E-13
  2.58364534960228E+00  2.58364534927943E+00  2.58364535000330E+00
 Reduced coordinates (xred)
  4.20571577011870E-11 -7.93032343287070E-12  7.84316056241567E-12
  2.49999999957943E-01  2.50000000007930E-01  2.49999999992157E-01
 Scale of Primitive Cell (acell) [bohr]
  7.30765258731392E+00  7.30765258771309E+00  7.30765258872305E+00
 Real space primitive translations (rprimd) [bohr]
  5.16729069913966E+00  5.16729069895052E+00  5.41625348009102E-10
  2.62542548487562E-10  5.16729069922960E+00  5.16729069942509E+00
  5.16729070003833E+00 -3.57044598080648E-10  5.16729070004467E+00
 Unitary Cell Volume (ucvol) [Bohr^3]=  2.75942553907276E+02
 Angles (23,13,12)= [degrees]
  5.99999999999590E+01  5.99999999982333E+01  5.99999999960830E+01
 Lengths [Bohr]
  7.30765258731392E+00  7.30765258771309E+00  7.30765258872305E+00
 
---SELF-CONSISTENT-FIELD CONVERGENCE--------------------------------------------
 
 getcut: wavevector=  0.0000  0.0000  0.0000  ngfft=  32  32  32
         ecut(hartree)=     16.000   => boxcut(ratio)=   2.43191
 
 getcut : COMMENT -
  Note that boxcut > 2.2 ; recall that boxcut=Gcut(box)/Gcut(sphere) = 2
  is sufficient for exact treatment of convolution.
  Such a large boxcut is a waste : you could raise ecut
  e.g. ecut=   23.656687 Hartrees makes boxcut=2
 
 
 ITER STEP NUMBER     1
 vtorho: nnsclo_now=2, note that nnsclo,dbl_nnsclo,istep=0 0 1
 Total charge density [el/Bohr^3]
      Maximum=    8.3684E-02  at reduced coord.    0.1563    0.1563    0.1563
      Minimum=    1.4866E-03  at reduced coord.    0.0000    0.0000    0.0000
   Integrated=    8.0000E+00
 ETOT  1  -8.4624366661960    -8.462E+00 1.907E-12 1.598E-07
 scprqt: <Vxc>= -3.3847784E-01 hartree
 
 Simple mixing update:
  residual square of the potential:   5.217648538854467E-008
 scfcv_core: previous iteration took  1.67 [s]
 
 ITER STEP NUMBER     2
 vtorho: nnsclo_now=2, note that nnsclo,dbl_nnsclo,istep=0 0 2
 Total charge density [el/Bohr^3]
      Maximum=    8.3683E-02  at reduced coord.    0.1563    0.5313    0.1563
      Minimum=    1.4866E-03  at reduced coord.    0.0000    0.0000    0.0000
   Integrated=    8.0000E+00
 ETOT  2  -8.4624366662241    -2.808E-11 2.031E-12 1.342E-08
 scprqt: <Vxc>= -3.3847811E-01 hartree
 
 Pulay update with  1 previous iterations:
 mixing of old trial potential: alpha(m:m-4)=   1.34     -0.336
 scfcv_core: previous iteration took  1.75 [s]
 
 ITER STEP NUMBER     3
 vtorho: nnsclo_now=1, note that nnsclo,dbl_nnsclo,istep=0 0 3
 Total charge density [el/Bohr^3]
      Maximum=    8.3683E-02  at reduced coord.    0.1563    0.1563    0.1563
[...]
 kpt#   4, nband=  6, wtk=  0.00781, kpt= -0.1250  0.5000  0.0000 (reduced coord)
  -0.19429   -0.09171    0.07052    0.09679    0.23247    0.28131
 kpt#   5, nband=  6, wtk=  0.00781, kpt= -0.2500 -0.3750  0.0000 (reduced coord)
  -0.21657   -0.02770    0.05697    0.07362    0.20349    0.25988
 kpt#   6, nband=  6, wtk=  0.00781, kpt= -0.1250 -0.3750  0.1250 (reduced coord)
  -0.20131   -0.05975    0.03338    0.08371    0.25836    0.28283
 kpt#   7, nband=  6, wtk=  0.00781, kpt= -0.3750 -0.2500  0.0000 (reduced coord)
  -0.21657   -0.02770    0.05697    0.07362    0.20349    0.25988
 kpt#   8, nband=  6, wtk=  0.00781, kpt= -0.2500 -0.2500  0.1250 (reduced coord)
  -0.21657   -0.02770    0.05697    0.07362    0.20349    0.25988
 kpt#   9, nband=  6, wtk=  0.00781, kpt= -0.1250 -0.2500  0.2500 (reduced coord)
  -0.20131   -0.05975    0.03338    0.08371    0.25836    0.28283
 kpt#  10, nband=  6, wtk=  0.00781, kpt=  0.5000 -0.1250  0.0000 (reduced coord)
  -0.19429   -0.09171    0.07052    0.09679    0.23247    0.28131
 kpt#  11, nband=  6, wtk=  0.00781, kpt= -0.3750 -0.1250  0.1250 (reduced coord)
  -0.20131   -0.05975    0.03338    0.08371    0.25836    0.28283
 kpt#  12, nband=  6, wtk=  0.00781, kpt= -0.2500 -0.1250  0.2500 (reduced coord)
  -0.20131   -0.05975    0.03338    0.08371    0.25836    0.28283
 kpt#  13, nband=  6, wtk=  0.00781, kpt= -0.1250 -0.1250  0.3750 (reduced coord)
  -0.19429   -0.09171    0.07052    0.09679    0.23247    0.28131
 kpt#  14, nband=  6, wtk=  0.00781, kpt= -0.1250  0.2500  0.0000 (reduced coord)
  -0.23612   -0.01540    0.06976    0.12515    0.25043    0.28753
 kpt#  15, nband=  6, wtk=  0.00781, kpt= -0.2500  0.3750  0.0000 (reduced coord)
  -0.17609   -0.08862    0.00935    0.08513    0.22131    0.35173
 kpt#  16, nband=  6, wtk=  0.00781, kpt= -0.1250  0.3750  0.1250 (reduced coord)
  -0.20131   -0.05975    0.03338    0.08371    0.25836    0.28283
 kpt#  17, nband=  6, wtk=  0.00781, kpt= -0.3750  0.5000  0.0000 (reduced coord)
  -0.16252   -0.09618    0.02963    0.05646    0.18738    0.22614
 kpt#  18, nband=  6, wtk=  0.00781, kpt= -0.2500  0.5000  0.1250 (reduced coord)
  -0.15637   -0.09975    0.00722    0.04678    0.24119    0.31020
 kpt#  19, nband=  6, wtk=  0.00781, kpt= -0.1250  0.5000  0.2500 (reduced coord)
  -0.15637   -0.09975    0.00722    0.04678    0.24119    0.31020
 kpt#  20, nband=  6, wtk=  0.00781, kpt=  0.5000 -0.3750  0.0000 (reduced coord)
  -0.16252   -0.09618    0.02963    0.05646    0.18738    0.22614
 kpt#  21, nband=  6, wtk=  0.00781, kpt= -0.3750 -0.3750  0.1250 (reduced coord)
  -0.16252   -0.09618    0.02963    0.05646    0.18738    0.22614
 kpt#  22, nband=  6, wtk=  0.00781, kpt= -0.2500 -0.3750  0.2500 (reduced coord)
  -0.15637   -0.09975    0.00722    0.04678    0.24119    0.31020
 kpt#  23, nband=  6, wtk=  0.00781, kpt= -0.1250 -0.3750  0.3750 (reduced coord)
  -0.15637   -0.09975    0.00722    0.04678    0.24119    0.31020
 kpt#  24, nband=  6, wtk=  0.00781, kpt=  0.3750 -0.2500  0.0000 (reduced coord)
  -0.17609   -0.08862    0.00935    0.08513    0.22131    0.35173
 kpt#  25, nband=  6, wtk=  0.00781, kpt=  0.5000 -0.2500  0.1250 (reduced coord)
  -0.15637   -0.09975    0.00722    0.04678    0.24119    0.31020
 kpt#  26, nband=  6, wtk=  0.00781, kpt= -0.3750 -0.2500  0.2500 (reduced coord)
  -0.15637   -0.09975    0.00722    0.04678    0.24119    0.31020
 kpt#  27, nband=  6, wtk=  0.00781, kpt= -0.2500 -0.2500  0.3750 (reduced coord)
  -0.17609   -0.08862    0.00935    0.08513    0.22131    0.35173
 kpt#  28, nband=  6, wtk=  0.00781, kpt= -0.1250 -0.2500  0.5000 (reduced coord)
  -0.20131   -0.05975    0.03338    0.08371    0.25836    0.28283
 kpt#  29, nband=  6, wtk=  0.00781, kpt=  0.2500 -0.1250  0.0000 (reduced coord)
  -0.23612   -0.01540    0.06976    0.12515    0.25043    0.28753
 kpt#  30, nband=  6, wtk=  0.00781, kpt=  0.3750 -0.1250  0.1250 (reduced coord)
  -0.20131   -0.05975    0.03338    0.08371    0.25836    0.28283
 kpt#  31, nband=  6, wtk=  0.00781, kpt=  0.5000 -0.1250  0.2500 (reduced coord)
  -0.15637   -0.09975    0.00722    0.04678    0.24119    0.31020
 kpt#  32, nband=  6, wtk=  0.00781, kpt= -0.3750 -0.1250  0.3750 (reduced coord)
  -0.15637   -0.09975    0.00722    0.04678    0.24119    0.31020
 kpt#  33, nband=  6, wtk=  0.00781, kpt= -0.2500 -0.1250  0.5000 (reduced coord)
  -0.20131   -0.05975    0.03338    0.08371    0.25836    0.28283
 kpt#  34, nband=  6, wtk=  0.00781, kpt= -0.1250 -0.1250 -0.3750 (reduced coord)
  -0.23612   -0.01540    0.06976    0.12515    0.25043    0.28753
 kpt#  35, nband=  6, wtk=  0.00781, kpt= -0.1250  0.0000  0.0000 (reduced coord)
  -0.27381    0.09459    0.14282    0.14282    0.24255    0.26217
 kpt#  36, nband=  6, wtk=  0.00781, kpt= -0.1250  0.1250  0.1250 (reduced coord)
  -0.25443    0.03516    0.10574    0.10806    0.23187    0.28596
 kpt#  37, nband=  6, wtk=  0.00781, kpt= -0.2500  0.2500  0.1250 (reduced coord)
  -0.20131   -0.05975    0.03338    0.08371    0.25836    0.28283
 kpt#  38, nband=  6, wtk=  0.00781, kpt= -0.1250  0.2500  0.2500 (reduced coord)
  -0.21657   -0.02770    0.05697    0.07362    0.20349    0.25988
 kpt#  39, nband=  6, wtk=  0.00781, kpt= -0.3750  0.3750  0.1250 (reduced coord)
  -0.15637   -0.09975    0.00722    0.04678    0.24119    0.31020
 kpt#  40, nband=  6, wtk=  0.00781, kpt= -0.2500  0.3750  0.2500 (reduced coord)
  -0.15637   -0.09975    0.00722    0.04678    0.24119    0.31020
 kpt#  41, nband=  6, wtk=  0.00781, kpt= -0.1250  0.3750  0.3750 (reduced coord)
  -0.16252   -0.09618    0.02963    0.05646    0.18738    0.22614
 kpt#  42, nband=  6, wtk=  0.00781, kpt=  0.5000  0.5000  0.1250 (reduced coord)
  -0.16252   -0.09618    0.02963    0.05646    0.18738    0.22614
 kpt#  43, nband=  6, wtk=  0.00781, kpt= -0.3750  0.5000  0.2500 (reduced coord)
  -0.15637   -0.09975    0.00722    0.04678    0.24119    0.31020
 kpt#  44, nband=  6, wtk=  0.00781, kpt= -0.2500  0.5000  0.3750 (reduced coord)
  -0.15637   -0.09975    0.00722    0.04678    0.24119    0.31020
 kpt#  45, nband=  6, wtk=  0.00781, kpt= -0.1250  0.5000  0.5000 (reduced coord)
  -0.16252   -0.09618    0.02963    0.05646    0.18738    0.22614
 kpt#  46, nband=  6, wtk=  0.00781, kpt=  0.3750 -0.3750  0.1250 (reduced coord)
  -0.15637   -0.09975    0.00722    0.04678    0.24119    0.31020
 kpt#  47, nband=  6, wtk=  0.00781, kpt=  0.5000 -0.3750  0.2500 (reduced coord)
  -0.15637   -0.09975    0.00722    0.04678    0.24119    0.31020
 kpt#  48, nband=  6, wtk=  0.00781, kpt= -0.3750 -0.3750  0.3750 (reduced coord)
  -0.17609   -0.08862    0.00935    0.08513    0.22131    0.35173
 kpt#  49, nband=  6, wtk=  0.00781, kpt= -0.2500 -0.3750  0.5000 (reduced coord)
  -0.20131   -0.05975    0.03338    0.08371    0.25836    0.28283
 kpt#  50, nband=  6, wtk=  0.00781, kpt= -0.1250 -0.3750 -0.3750 (reduced coord)
  -0.21657   -0.02770    0.05697    0.07362    0.20349    0.25988
 prteigrs : prtvol=0 or 1, do not print more k-points.
 
 Total charge density [el/Bohr^3]
      Maximum=    8.3683E-02  at reduced coord.    0.1563    0.1563    0.1563
 Next maximum=    8.3683E-02  at reduced coord.    0.0938    0.0938    0.0938
      Minimum=    1.4866E-03  at reduced coord.    0.0000    0.0000    0.0000
 Next minimum=    1.4866E-03  at reduced coord.    0.2500    0.2500    0.2500
   Integrated=    8.0000E+00
 
 Cartesian components of stress tensor (hartree/bohr^3)
  sigma(1 1)= -3.99971709E-11  sigma(3 2)= -4.13075401E-13
  sigma(2 2)= -4.00626368E-11  sigma(3 1)=  5.14410125E-13
  sigma(3 3)= -4.00366090E-11  sigma(2 1)= -4.03198523E-13
 
-Cartesian components of stress tensor (GPa)         [Pressure=  1.1778E-06 GPa]
- sigma(1 1)= -1.17675720E-06  sigma(3 2)= -1.21530958E-08
- sigma(2 2)= -1.17868327E-06  sigma(3 1)=  1.51344658E-08
- sigma(3 3)= -1.17791751E-06  sigma(2 1)= -1.18625081E-08
 
== END DATASET(S) ==============================================================
================================================================================
  
 -outvars: echo values of variables after computation  --------
 
 These variables are accessible in NetCDF format (opto_OUT.nc)

            acell      7.3076524878E+00  7.3076524882E+00  7.3076524889E+00 Bohr
              amu      2.80855000E+01
          dilatmx      1.05000000E+00
             ecut      1.60000000E+01 Hartree
           ecutsm      5.00000000E-01 Hartree
           etotal     -8.4624366662E+00
            fcart     -5.8725568062E-11 -1.0114721796E-11 -1.6888836119E-11
                       5.8725568062E-11  1.0114721796E-11  1.6888836119E-11
-          fftalg         312
           ionmov           2
              ixc          11
              kpt     -1.25000000E-01 -2.50000000E-01  0.00000000E+00
                      -2.50000000E-01 -1.25000000E-01  0.00000000E+00
                      -1.25000000E-01 -1.25000000E-01  1.25000000E-01
                      -1.25000000E-01  5.00000000E-01  0.00000000E+00
                      -2.50000000E-01 -3.75000000E-01  0.00000000E+00
                      -1.25000000E-01 -3.75000000E-01  1.25000000E-01
                      -3.75000000E-01 -2.50000000E-01  0.00000000E+00
                      -2.50000000E-01 -2.50000000E-01  1.25000000E-01
                      -1.25000000E-01 -2.50000000E-01  2.50000000E-01
                       5.00000000E-01 -1.25000000E-01  0.00000000E+00
                      -3.75000000E-01 -1.25000000E-01  1.25000000E-01
                      -2.50000000E-01 -1.25000000E-01  2.50000000E-01
                      -1.25000000E-01 -1.25000000E-01  3.75000000E-01
                      -1.25000000E-01  2.50000000E-01  0.00000000E+00
                      -2.50000000E-01  3.75000000E-01  0.00000000E+00
                      -1.25000000E-01  3.75000000E-01  1.25000000E-01
                      -3.75000000E-01  5.00000000E-01  0.00000000E+00
                      -2.50000000E-01  5.00000000E-01  1.25000000E-01
                      -1.25000000E-01  5.00000000E-01  2.50000000E-01
                       5.00000000E-01 -3.75000000E-01  0.00000000E+00
                      -3.75000000E-01 -3.75000000E-01  1.25000000E-01
                      -2.50000000E-01 -3.75000000E-01  2.50000000E-01
                      -1.25000000E-01 -3.75000000E-01  3.75000000E-01
                       3.75000000E-01 -2.50000000E-01  0.00000000E+00
                       5.00000000E-01 -2.50000000E-01  1.25000000E-01
                      -3.75000000E-01 -2.50000000E-01  2.50000000E-01
                      -2.50000000E-01 -2.50000000E-01  3.75000000E-01
                      -1.25000000E-01 -2.50000000E-01  5.00000000E-01
                       2.50000000E-01 -1.25000000E-01  0.00000000E+00
                       3.75000000E-01 -1.25000000E-01  1.25000000E-01
                       5.00000000E-01 -1.25000000E-01  2.50000000E-01
                      -3.75000000E-01 -1.25000000E-01  3.75000000E-01
                      -2.50000000E-01 -1.25000000E-01  5.00000000E-01
                      -1.25000000E-01 -1.25000000E-01 -3.75000000E-01
                      -1.25000000E-01  0.00000000E+00  0.00000000E+00
                      -1.25000000E-01  1.25000000E-01  1.25000000E-01
                      -2.50000000E-01  2.50000000E-01  1.25000000E-01
                      -1.25000000E-01  2.50000000E-01  2.50000000E-01
                      -3.75000000E-01  3.75000000E-01  1.25000000E-01
                      -2.50000000E-01  3.75000000E-01  2.50000000E-01
                      -1.25000000E-01  3.75000000E-01  3.75000000E-01
                       5.00000000E-01  5.00000000E-01  1.25000000E-01
                      -3.75000000E-01  5.00000000E-01  2.50000000E-01
                      -2.50000000E-01  5.00000000E-01  3.75000000E-01
                      -1.25000000E-01  5.00000000E-01  5.00000000E-01
                       3.75000000E-01 -3.75000000E-01  1.25000000E-01
                       5.00000000E-01 -3.75000000E-01  2.50000000E-01
                      -3.75000000E-01 -3.75000000E-01  3.75000000E-01
                      -2.50000000E-01 -3.75000000E-01  5.00000000E-01
                      -1.25000000E-01 -3.75000000E-01 -3.75000000E-01
                       outvar_i_n : Printing only first  50 k-points.
         kptrlatt        4   -4    4     -4    4    4     -4   -4    4
          kptrlen      4.53534272E+01
P           mkmem          10
            natom           2
            nband           6
            ngfft          32      32      32
             nkpt         128
             nsym           1
            ntime          15
           ntypat           1
              occ      2.000000  2.000000  2.000000  2.000000  0.000000  0.000000
          optcell           2
            rprim      7.0710678120E-01  7.0710678117E-01  6.9650239756E-11
                       3.1527828871E-11  7.0710678117E-01  7.0710678120E-01
                       7.0710678119E-01 -2.1777182160E-11  7.0710678119E-01
           shiftk      5.00000000E-01  5.00000000E-01  5.00000000E-01
          spgroup           1
           strten     -3.9997170940E-11 -4.0062636802E-11 -4.0036609011E-11
                      -4.1307540147E-13  5.1441012505E-13 -4.0319852329E-13
           tolmxf      1.00000000E-08
           tolvrs      1.00000000E-10
            typat      1  1
              wtk        0.00781    0.00781    0.00781    0.00781    0.00781    0.00781
                         0.00781    0.00781    0.00781    0.00781    0.00781    0.00781
                         0.00781    0.00781    0.00781    0.00781    0.00781    0.00781
                         0.00781    0.00781    0.00781    0.00781    0.00781    0.00781
                         0.00781    0.00781    0.00781    0.00781    0.00781    0.00781
                         0.00781    0.00781    0.00781    0.00781    0.00781    0.00781
                         0.00781    0.00781    0.00781    0.00781    0.00781    0.00781
                         0.00781    0.00781    0.00781    0.00781    0.00781    0.00781
                         0.00781    0.00781
                       outvars : Printing only first  50 k-points.
           xangst      1.1638012194E-10  8.8647964307E-11 -3.2058171592E-12
                       1.3672062155E+00  1.3672062153E+00  1.3672062157E+00
            xcart      2.1992655779E-10  1.6752037478E-10 -6.0581164630E-12
                       2.5836453144E+00  2.5836453142E+00  2.5836453148E+00
             xred      3.8076535396E-11 -5.6571522372E-12  4.4847551496E-12
                       2.4999999996E-01  2.5000000001E-01  2.5000000000E-01
            znucl       14.00000
 
================================================================================
  

================================================================================

 Suggested references for the acknowledgment of ABINIT usage.

 The users of ABINIT have little formal obligations with respect to the ABINIT group
 (those specified in the GNU General Public License, http://www.gnu.org/copyleft/gpl.txt).
 However, it is common practice in the scientific literature,
 to acknowledge the efforts of people that have made the research possible.
 In this spirit, please find below suggested citations of work written by ABINIT developers,
 corresponding to implementations inside of ABINIT that you have used in the present run.
 Note also that it will be of great value to readers of publications presenting these results,
 to read papers enabling them to understand the theoretical formalism and details
 of the ABINIT implementation.
 For information on why they are suggested, see also https://docs.abinit.org/theory/acknowledgments.
-
- [1] Recent developments in the ABINIT software package.
- Computer Phys. Comm. 205, 106 (2016).
- X.Gonze, F.Jollet, F.Abreu Araujo, D.Adams, B.Amadon, T.Applencourt,
- C.Audouze, J.-M.Beuken, J.Bieder, A.Bokhanchuk, E.Bousquet, F.Bruneval
- D.Caliste, M.Cote, F.Dahm, F.Da Pieve, M.Delaveau, M.Di Gennaro,
- B.Dorado, C.Espejo, G.Geneste, L.Genovese, A.Gerossier, M.Giantomassi,
- Y.Gillet, D.R.Hamann, L.He, G.Jomard, J.Laflamme Janssen, S.Le Roux,
- A.Levitt, A.Lherbier, F.Liu, I.Lukacevic, A.Martin, C.Martins,
- M.J.T.Oliveira, S.Ponce, Y.Pouillon, T.Rangel, G.-M.Rignanese,
- A.H.Romero, B.Rousseau, O.Rubel, A.A.Shukri, M.Stankovski, M.Torrent,
- M.J.Van Setten, B.Van Troeye, M.J.Verstraete, D.Waroquier, J.Wiktor,
- B.Xu, A.Zhou, J.W.Zwanziger.
- Comment: the fourth generic paper describing the ABINIT project.
- Note that a version of this paper, that is not formatted for Computer Phys. Comm. 
- is available at https://www.abinit.org/about/ABINIT16.pdf .
- The licence allows the authors to put it on the Web.
- DOI and bibtex: see https://docs.abinit.org/theory/bibliography/#gonze2016
-
- [2] Optimized norm-conserving Vanderbilt pseudopotentials.
- D.R. Hamann, Phys. Rev. B 88, 085117 (2013).
- Comment: Some pseudopotential generated using the ONCVPSP code were used.
- DOI and bibtex: see https://docs.abinit.org/theory/bibliography/#hamann2013
-
- [3] ABINIT: First-principles approach of materials and nanosystem properties.
- Computer Phys. Comm. 180, 2582-2615 (2009).
- X. Gonze, B. Amadon, P.-M. Anglade, J.-M. Beuken, F. Bottin, P. Boulanger, F. Bruneval,
- D. Caliste, R. Caracas, M. Cote, T. Deutsch, L. Genovese, Ph. Ghosez, M. Giantomassi
- S. Goedecker, D.R. Hamann, P. Hermet, F. Jollet, G. Jomard, S. Leroux, M. Mancini, S. Mazevet,
- M.J.T. Oliveira, G. Onida, Y. Pouillon, T. Rangel, G.-M. Rignanese, D. Sangalli, R. Shaltaf,
- M. Torrent, M.J. Verstraete, G. Zerah, J.W. Zwanziger
- Comment: the third generic paper describing the ABINIT project.
- Note that a version of this paper, that is not formatted for Computer Phys. Comm. 
- is available at https://www.abinit.org/about/ABINIT_CPC_v10.pdf .
- The licence allows the authors to put it on the Web.
- DOI and bibtex: see https://docs.abinit.org/theory/bibliography/#gonze2009
-
- [4] A brief introduction to the ABINIT software package.
- Z. Kristallogr. 220, 558-562 (2005).
- X. Gonze, G.-M. Rignanese, M. Verstraete, J.-M. Beuken, Y. Pouillon, R. Caracas, F. Jollet,
- M. Torrent, G. Zerah, M. Mikami, Ph. Ghosez, M. Veithen, J.-Y. Raty, V. Olevano, F. Bruneval,
- L. Reining, R. Godby, G. Onida, D.R. Hamann, and D.C. Allan.
- Comment: the second generic paper describing the ABINIT project. Note that this paper
- should be cited especially if you are using the GW part of ABINIT, as several authors
- of this part are not in the list of authors of the first or third paper.
- The .pdf of the latter paper is available at https://www.abinit.org/about/zfk_0505-06_558-562.pdf.
- Note that it should not redistributed (Copyright by Oldenburg Wissenshaftverlag,
- the licence allows the authors to put it on the Web).
- DOI and bibtex: see https://docs.abinit.org/theory/bibliography/#gonze2005
-
- And optionally:
-
- [5] First-principles computation of material properties: the ABINIT software project. 
- X. Gonze, J.-M. Beuken, R. Caracas, F. Detraux, M. Fuchs, G.-M. Rignanese, L. Sindic,
- M. Verstraete, G. Zerah, F. Jollet, M. Torrent, A. Roy, M. Mikami, Ph. Ghosez, J.-Y. Raty, D.C. Allan.
- Computational Materials Science 25, 478-492 (2002). http://dx.doi.org/10.1016/S0927-0256(02)00325-7
- Comment: the original paper describing the ABINIT project.
- DOI and bibtex : see https://docs.abinit.org/theory/bibliography/#gonze2002
 Proc.   0 individual time (sec): cpu=         60.4  wall=         71.7
 
 Calculation completed.
.Delivered   0 WARNINGs and   9 COMMENTs to log file.

--- !FinalSummary
program: abinit
version: 8.11.13
start_datetime: Wed Jan 22 17:35:46 2020
end_datetime: Wed Jan 22 17:36:58 2020
overall_cpu_time:         832.0
overall_wall_time:        1003.4
exit_requested_by_user: no 
timelimit: 0
pseudos: 
    Si  : 45c393525680abc7b25445b8ec62bf83
usepaw: 0
mpi_procs: 14
omp_threads: 1
num_warnings: 0
num_comments: 9
...
