--------------------------------------------------------------------------
[[12864,1],2]: A high-performance Open MPI point-to-point messaging module
was unable to find any relevant network interfaces:

Module: OpenFabrics (openib)
  Host: abipy

Another transport will be used instead, although this may result in
lower performance.
--------------------------------------------------------------------------
  ABINIT 8.10.3
  
  Give name for formatted input file: 
tbase4_7.in
  Give name for formatted output file:
tbase4_7.out
  Give root name for generic input files:
tbase4_7i
  Give root name for generic output files:
tbase4_7o
  Give root name for generic temporary files:
tbase4_7

--- !COMMENT
src_file: m_dtfil.F90
src_line: 1159
message: |
    Output file tbase4_7.out
     already exists.
...


--- !COMMENT
src_file: m_dtfil.F90
src_line: 1183
message: |
    Renaming old tbase4_7.out to tbase4_7.out0008
...


.Version 8.10.3 of ABINIT 
.(MPI version, prepared for a x86_64_linux_gnu5.4 computer) 

.Copyright (C) 1998-2018 ABINIT group . 
 ABINIT comes with ABSOLUTELY NO WARRANTY.
 It is free software, and you are welcome to redistribute it
 under certain conditions (GNU General Public License,
 see ~abinit/COPYING or http://www.gnu.org/copyleft/gpl.txt).

 ABINIT is a project of the Universite Catholique de Louvain,
 Corning Inc. and other collaborators, see ~abinit/doc/developers/contributors.txt .
 Please read https://docs.abinit.org/theory/acknowledgments for suggested
 acknowledgments of the ABINIT effort.
 For more information, see https://www.abinit.org .

.Starting date : Thu 24 Oct 2019.
- ( at 16h58 )
  

 ++++++++++++++++++++++++++++++++++++++++++++++++++++++++++++++++++++++++++++++

 === Build Information === 
  Version       : 8.10.3
  Build target  : x86_64_linux_gnu5.4
  Build date    : 20191016

 === Compiler Suite === 
  C compiler       : gnu5.4
  C++ compiler     : gnu5.4
  Fortran compiler : gnu5.4
  CFLAGS           :  -g -O2 -mtune=native -march=native
  CXXFLAGS         :  -g -O2 -mtune=native -march=native
  FCFLAGS          :  -g -ffree-line-length-none  -fopenmp
  FC_LDFLAGS       : 

 === Optimizations === 
  Debug level        : basic
  Optimization level : standard
  Architecture       : unknown_unknown

 === Multicore === 
  Parallel build : yes
  Parallel I/O   : yes
  openMP support : yes
  GPU support    : no

 === Connectors / Fallbacks === 
  Connectors on : yes
  Fallbacks on  : yes
  DFT flavor    : none
  FFT flavor    : fftw3
  LINALG flavor : atlas
  MATH flavor   : none
  TIMER flavor  : abinit
  TRIO flavor   : netcdf

 === Experimental features === 
  Bindings            : @enable_bindings@
  Exports             : no
  GW double-precision : no

 ++++++++++++++++++++++++++++++++++++++++++++++++++++++++++++++++++++++++++++++


 ++++++++++++++++++++++++++++++++++++++++++++++++++++++++++++++++++++++++++++++
 Default optimizations:
   -O2 -mtune=native -march=native


 Optimizations for 43_ptgroups:
   -O0


 ++++++++++++++++++++++++++++++++++++++++++++++++++++++++++++++++++++++++++++++


 ++++++++++++++++++++++++++++++++++++++++++++++++++++++++++++++++++++++++++++++
 CPP options activated during the build:

                    CC_GNU                   CXX_GNU                    FC_GNU
 
 HAVE_FC_ALLOCATABLE_DT...             HAVE_FC_ASYNC         HAVE_FC_BACKTRACE
 
  HAVE_FC_COMMAND_ARGUMENT      HAVE_FC_COMMAND_LINE        HAVE_FC_CONTIGUOUS
 
           HAVE_FC_CPUTIME              HAVE_FC_EXIT             HAVE_FC_FLUSH
 
             HAVE_FC_GAMMA            HAVE_FC_GETENV   HAVE_FC_IEEE_EXCEPTIONS
 
          HAVE_FC_INT_QUAD             HAVE_FC_IOMSG     HAVE_FC_ISO_C_BINDING
 
  HAVE_FC_ISO_FORTRAN_2008        HAVE_FC_LONG_LINES        HAVE_FC_MOVE_ALLOC
 
           HAVE_FC_PRIVATE         HAVE_FC_PROTECTED         HAVE_FC_STREAM_IO
 
            HAVE_FC_SYSTEM                  HAVE_FFT            HAVE_FFT_FFTW3
 
              HAVE_FFT_MPI           HAVE_FFT_SERIAL          HAVE_FORTRAN2003
 
        HAVE_LIBPAW_ABINIT      HAVE_LIBTETRA_ABINIT               HAVE_LINALG
 
        HAVE_LINALG_SERIAL                  HAVE_MPI                 HAVE_MPI2
 
       HAVE_MPI_IALLREDUCE        HAVE_MPI_IALLTOALL       HAVE_MPI_IALLTOALLV
 
        HAVE_MPI_INTEGER16               HAVE_MPI_IO HAVE_MPI_TYPE_CREATE_S...
 
               HAVE_NETCDF           HAVE_NETCDF_MPI         HAVE_OMP_COLLAPSE
 
               HAVE_OPENMP             HAVE_OS_LINUX         HAVE_TIMER_ABINIT
 
              USE_MACROAVE                                                      
 ++++++++++++++++++++++++++++++++++++++++++++++++++++++++++++++++++++++++++++++

- input  file    -> tbase4_7.in
- output file    -> tbase4_7.out
- root for input  files -> tbase4_7i
- root for output files -> tbase4_7o


--- !WARNING
src_file: m_nctk.F90
src_line: 572
message: |
    netcdf lib does not support MPI-IO and: NetCDF: Parallel operation on file opened for non-parallel access
...

  Asked to delete not existent file: __TMP_FILE__

--- !WARNING
src_file: m_nctk.F90
src_line: 592
message: |
    The netcdf library does not support parallel IO, see message above
    Abinit won't be able to produce files in parallel e.g. when paral_kgb==1 is used.
    Action: install a netcdf4+HDF5 library with MPI-IO support.
...

-instrng: 117 lines of input have been read from file tbase4_7.in


 Please give name of formatted atomic psp file
 iofn2 : for atom type 1, psp file is ../../../../../Psps_for_tests/13al.981214.fhi
  read the values zionpsp=  3.0 , pspcod=   6 , lmax=   2

 inpspheads: deduce mpsang = 3, n1xccc = 0.
 invars1 : treat image number: 1

 symlatt : the Bravais lattice is tP (primitive tetragonal)
  xcart  is defined in input file
 ingeo: takes atomic coordinates from input array xcart

 symlatt : the Bravais lattice is tP (primitive tetragonal)

 symlatt : the Bravais lattice is tP (primitive tetragonal)

--- !COMMENT
src_file: m_symfind.F90
src_line: 815
message: |
    The Bravais lattice determined only from the primitive
    vectors, bravais(1)=  4, is more symmetric
    than the real one, iholohedry=  3, obtained by taking into
    account the atomic positions. Start deforming the primitive vector set.
...


 symlatt : the Bravais lattice is oC (one-face-centered orthorhombic)
 symspgr : spgroup=  38  Am m 2   (=C2v^14)
 ingeo: angdeg(1:3)=   90.00000000   90.00000000   90.00000000
 invars1 : treat image number: 1

 symlatt : the Bravais lattice is tP (primitive tetragonal)
  xcart  is defined in input file
 ingeo: takes atomic coordinates from input array xcart

 symlatt : the Bravais lattice is tP (primitive tetragonal)

 symlatt : the Bravais lattice is tP (primitive tetragonal)

--- !COMMENT
src_file: m_symfind.F90
src_line: 815
message: |
    The Bravais lattice determined only from the primitive
    vectors, bravais(1)=  4, is more symmetric
    than the real one, iholohedry=  2, obtained by taking into
    account the atomic positions. Start deforming the primitive vector set.
...


 symlatt : the Bravais lattice is mC (one-face-centered monoclinic)
 symspgr : spgroup=  12  C2/m   (=C2h^3)
 ingeo: angdeg(1:3)=   90.00000000   90.00000000   90.00000000
 invars1 : treat image number: 1

 symlatt : the Bravais lattice is tP (primitive tetragonal)
  xcart  is defined in input file
 ingeo: takes atomic coordinates from input array xcart

 symlatt : the Bravais lattice is tP (primitive tetragonal)

 symlatt : the Bravais lattice is tP (primitive tetragonal)

--- !COMMENT
src_file: m_symfind.F90
src_line: 815
message: |
    The Bravais lattice determined only from the primitive
    vectors, bravais(1)=  4, is more symmetric
    than the real one, iholohedry=  3, obtained by taking into
    account the atomic positions. Start deforming the primitive vector set.
...


 symlatt : the Bravais lattice is oC (one-face-centered orthorhombic)
 symspgr : spgroup=  38  Am m 2   (=C2v^14)
 ingeo: angdeg(1:3)=   90.00000000   90.00000000   90.00000000
 invars2: take the default value of fband=  5.00000000E-01
 chkneu : initialized the occupation numbers for occopt=    4, spin-unpolarized or antiferromagnetic case :
  2.00  2.00  2.00  2.00  1.00  0.00  0.00
 invars2: take the default value of fband=  5.00000000E-01
 chkneu : initialized the occupation numbers for occopt=    4, spin-unpolarized or antiferromagnetic case :
  2.00  2.00  2.00  2.00  2.00  2.00  0.00  0.00
 invars2: take the default value of fband=  5.00000000E-01
 chkneu : initialized the occupation numbers for occopt=    4, spin-unpolarized or antiferromagnetic case :
  2.00  2.00  2.00  2.00  2.00  2.00  2.00  1.00  0.00  0.00  0.00
npfft, npband, npspinor and npkpt:     1    1    1    4
mpi_setup: mkmem  undefined in the input file.Use default mkmem  = nkpt
 mpi_setup: With nkpt_me=2 and mkmem  = 8, ground state wf handled in core.
 Resetting mkmem  to nkpt_me to save memory space.
mpi_setup: mkqmem undefined in the input file.Use default mkqmem = nkpt
 mpi_setup: With nkpt_me=2 and mkqmem = 8, ground state wf handled in core.
 Resetting mkqmem to nkpt_me to save memory space.
mpi_setup: mk1mem undefined in the input file.Use default mk1mem = nkpt
 mpi_setup: With nkpt_me=2 and mk1mem = 8, ground state wf handled in core.
 Resetting mk1mem to nkpt_me to save memory space.
 For input ecut=  6.000000E+00 best grid ngfft=      12      12      45
       max ecut=  6.307140E+00

 ==== FFT mesh ====
  FFT mesh divisions ........................    12   12   45
  Augmented FFT divisions ...................    13   13   45
  FFT algorithm .............................   312
  FFT cache size ............................    16
 getmpw: optimal value of mpw= 378
npfft, npband, npspinor and npkpt:     1    1    1    4
mpi_setup: mkmem  undefined in the input file.Use default mkmem  = nkpt
 mpi_setup: With nkpt_me=2 and mkmem  = 8, ground state wf handled in core.
 Resetting mkmem  to nkpt_me to save memory space.
mpi_setup: mkqmem undefined in the input file.Use default mkqmem = nkpt
 mpi_setup: With nkpt_me=2 and mkqmem = 8, ground state wf handled in core.
 Resetting mkqmem to nkpt_me to save memory space.
mpi_setup: mk1mem undefined in the input file.Use default mk1mem = nkpt
 mpi_setup: With nkpt_me=2 and mk1mem = 8, ground state wf handled in core.
 Resetting mk1mem to nkpt_me to save memory space.
 For input ecut=  6.000000E+00 best grid ngfft=      12      12      50
       max ecut=  6.083275E+00

 ==== FFT mesh ====
  FFT mesh divisions ........................    12   12   50
  Augmented FFT divisions ...................    13   13   50
  FFT algorithm .............................   312
  FFT cache size ............................    16
 getmpw: optimal value of mpw= 452
npfft, npband, npspinor and npkpt:     1    1    1    4
mpi_setup: mkmem  undefined in the input file.Use default mkmem  = nkpt
 mpi_setup: With nkpt_me=2 and mkmem  = 8, ground state wf handled in core.
 Resetting mkmem  to nkpt_me to save memory space.
mpi_setup: mkqmem undefined in the input file.Use default mkqmem = nkpt
 mpi_setup: With nkpt_me=2 and mkqmem = 8, ground state wf handled in core.
 Resetting mkqmem to nkpt_me to save memory space.
mpi_setup: mk1mem undefined in the input file.Use default mk1mem = nkpt
 mpi_setup: With nkpt_me=2 and mk1mem = 8, ground state wf handled in core.
 Resetting mk1mem to nkpt_me to save memory space.
 For input ecut=  6.000000E+00 best grid ngfft=      12      12      60
       max ecut=  6.307140E+00

 ==== FFT mesh ====
  FFT mesh divisions ........................    12   12   60
  Augmented FFT divisions ...................    13   13   60
  FFT algorithm .............................   312
  FFT cache size ............................    16
 getmpw: optimal value of mpw= 532

 DATASET    1 : space group Am m 2 (# 38); Bravais oC (1-face-center ortho.)

 getdim_nloc : deduce lmnmax  =   9, lnmax  =   3,
                      lmnmaxso=   9, lnmaxso=   3.
 For input ecut=  2.545795E+00 best grid ngfft=       8       8      30
       max ecut=  2.803173E+00

 ==== FFT mesh ====
  FFT mesh divisions ........................     8    8   30
  Augmented FFT divisions ...................     9    9   30
  FFT algorithm .............................   101
  FFT cache size ............................    16
 getmpw: optimal value of mpw= 85
memory : analysis of memory needs
================================================================================
 Values of the parameters that define the memory need for DATASET  1.
     intxc =       0    ionmov =       2      iscf =       7    lmnmax =       3
     lnmax =       3     mgfft =      45  mpssoang =       3    mqgrid =    3001
     natom =       3  nloc_mem =       1    nspden =       1   nspinor =       1
    nsppol =       1      nsym =       4    n1xccc =       0    ntypat =       1
    occopt =       4   xclevel =       1
-    mband =           7        mffmem =           1         mkmem =           2
       mpw =         378          nfft =        6480          nkpt =           8
 For the susceptibility and dielectric matrices, or tddft :
   mgfft =        30  nbnd_in_blk=     4    nfft =      1920     npw =        85
================================================================================
P This job should need less than                       3.427 Mbytes of memory.
  Rough estimation (10% accuracy) of disk space for files :
_ WF disk file :      0.325 Mbytes ; DEN or POT disk file :      0.051 Mbytes.
================================================================================

 Biggest array : f_fftgr(disk), with      0.7930 MBytes.
 memana : allocated an array of      0.793 Mbytes, for testing purposes.
 memana: allocated       3.427Mbytes, for testing purposes. 
 The job will continue.

 DATASET    2 : space group C2/m (# 12); Bravais mC (1-face-center monocl.)

 getdim_nloc : deduce lmnmax  =   9, lnmax  =   3,
                      lmnmaxso=   9, lnmaxso=   3.
 For input ecut=  2.545795E+00 best grid ngfft=       8       8      36
       max ecut=  2.803173E+00

 ==== FFT mesh ====
  FFT mesh divisions ........................     8    8   36
  Augmented FFT divisions ...................     9    9   36
  FFT algorithm .............................   101
  FFT cache size ............................    16
 getmpw: optimal value of mpw= 103
memory : analysis of memory needs
================================================================================
 Values of the parameters that define the memory need for DATASET  2.
     intxc =       0    ionmov =       2      iscf =       7    lmnmax =       3
     lnmax =       3     mgfft =      50  mpssoang =       3    mqgrid =    3001
     natom =       4  nloc_mem =       1    nspden =       1   nspinor =       1
    nsppol =       1      nsym =       4    n1xccc =       0    ntypat =       1
    occopt =       4   xclevel =       1
-    mband =           8        mffmem =           1         mkmem =           2
       mpw =         452          nfft =        7200          nkpt =           8
 For the susceptibility and dielectric matrices, or tddft :
   mgfft =        36  nbnd_in_blk=     4    nfft =      2304     npw =       103
================================================================================
P This job should need less than                       3.801 Mbytes of memory.
  Rough estimation (10% accuracy) of disk space for files :
_ WF disk file :      0.443 Mbytes ; DEN or POT disk file :      0.057 Mbytes.
================================================================================

 Biggest array : f_fftgr(disk), with      0.8809 MBytes.
 memana : allocated an array of      0.881 Mbytes, for testing purposes.
 memana: allocated       3.801Mbytes, for testing purposes. 
 The job will continue.

 DATASET    3 : space group Am m 2 (# 38); Bravais oC (1-face-center ortho.)

 getdim_nloc : deduce lmnmax  =   9, lnmax  =   3,
                      lmnmaxso=   9, lnmaxso=   3.
 For input ecut=  2.545795E+00 best grid ngfft=       8       8      40
       max ecut=  2.803173E+00

 ==== FFT mesh ====
  FFT mesh divisions ........................     8    8   40
  Augmented FFT divisions ...................     9    9   40
  FFT algorithm .............................   101
  FFT cache size ............................    16
 getmpw: optimal value of mpw= 121
memory : analysis of memory needs
================================================================================
 Values of the parameters that define the memory need for DATASET  3.
     intxc =       0    ionmov =       2      iscf =       7    lmnmax =       3
     lnmax =       3     mgfft =      60  mpssoang =       3    mqgrid =    3001
     natom =       5  nloc_mem =       1    nspden =       1   nspinor =       1
    nsppol =       1      nsym =       4    n1xccc =       0    ntypat =       1
    occopt =       4   xclevel =       1
-    mband =          11        mffmem =           1         mkmem =           2
       mpw =         532          nfft =        8640          nkpt =           8
 For the susceptibility and dielectric matrices, or tddft :
   mgfft =        40  nbnd_in_blk=     6    nfft =      2560     npw =       121
================================================================================
P This job should need less than                       4.438 Mbytes of memory.
  Rough estimation (10% accuracy) of disk space for files :
_ WF disk file :      0.716 Mbytes ; DEN or POT disk file :      0.068 Mbytes.
================================================================================

 Biggest array : f_fftgr(disk), with      1.0567 MBytes.
 memana : allocated an array of      1.057 Mbytes, for testing purposes.
 memana: allocated       4.438Mbytes, for testing purposes. 
 The job will continue.
--------------------------------------------------------------------------------
------------- Echo of variables that govern the present computation ------------
--------------------------------------------------------------------------------
-
- outvars: echo of selected default values                                      
-   iomode0 =  0 , fftalg0 =312 , wfoptalg0 =  0
-
- outvars: echo of global parameters not present in the input file              
-  max_nthreads =    1
-
 -outvars: echo values of preprocessed input variables --------
 
 These variables are accessible in NetCDF format (tbase4_7o_OUT.nc)

            acell      7.5055909000E+00  7.5055909000E+00  7.5055909000E+00 Bohr
              amu      2.69815390E+01
             ecut      6.00000000E+00 Hartree
-          fftalg         312
           ionmov           2
           iprcel          45
           jdtset        1    2    3
              kpt     -1.25000000E-01  0.00000000E+00  0.00000000E+00
                      -3.75000000E-01  0.00000000E+00  0.00000000E+00
                      -2.50000000E-01  1.25000000E-01  0.00000000E+00
                       5.00000000E-01  1.25000000E-01  0.00000000E+00
                      -3.75000000E-01  2.50000000E-01  0.00000000E+00
                       2.50000000E-01  1.25000000E-01  0.00000000E+00
                       3.75000000E-01  2.50000000E-01  0.00000000E+00
                       5.00000000E-01  3.75000000E-01  0.00000000E+00
         kptrlatt        4    4    0     -4    4    0      0    0    1
          kptrlen      3.00223636E+01
P           mkmem           2
            natom1          3
            natom2          4
            natom3          5
            nband1          7
            nband2          8
            nband3         11
           ndtset           3
            ngfft1         12      12      45
            ngfft2         12      12      50
            ngfft3         12      12      60
             nkpt           8
            nstep          10
             nsym           4
            ntime          10
           ntypat           1
              occ1     2.000000  2.000000  2.000000  2.000000  1.000000  0.000000
                       0.000000
                       2.000000  2.000000  2.000000  2.000000  1.000000  0.000000
                       0.000000
                       2.000000  2.000000  2.000000  2.000000  1.000000  0.000000
                       0.000000
                       2.000000  2.000000  2.000000  2.000000  1.000000  0.000000
                       0.000000
                       2.000000  2.000000  2.000000  2.000000  1.000000  0.000000
                       0.000000
                       2.000000  2.000000  2.000000  2.000000  1.000000  0.000000
                       0.000000
                       2.000000  2.000000  2.000000  2.000000  1.000000  0.000000
                       0.000000
                       2.000000  2.000000  2.000000  2.000000  1.000000  0.000000
                       0.000000
              occ2     2.000000  2.000000  2.000000  2.000000  2.000000  2.000000
                       0.000000  0.000000
                       2.000000  2.000000  2.000000  2.000000  2.000000  2.000000
                       0.000000  0.000000
                       2.000000  2.000000  2.000000  2.000000  2.000000  2.000000
                       0.000000  0.000000
                       2.000000  2.000000  2.000000  2.000000  2.000000  2.000000
                       0.000000  0.000000
                       2.000000  2.000000  2.000000  2.000000  2.000000  2.000000
                       0.000000  0.000000
                       2.000000  2.000000  2.000000  2.000000  2.000000  2.000000
                       0.000000  0.000000
                       2.000000  2.000000  2.000000  2.000000  2.000000  2.000000
                       0.000000  0.000000
                       2.000000  2.000000  2.000000  2.000000  2.000000  2.000000
                       0.000000  0.000000
              occ3     2.000000  2.000000  2.000000  2.000000  2.000000  2.000000
                       2.000000  1.000000  0.000000  0.000000  0.000000
                       2.000000  2.000000  2.000000  2.000000  2.000000  2.000000
                       2.000000  1.000000  0.000000  0.000000  0.000000
                       2.000000  2.000000  2.000000  2.000000  2.000000  2.000000
                       2.000000  1.000000  0.000000  0.000000  0.000000
                       2.000000  2.000000  2.000000  2.000000  2.000000  2.000000
                       2.000000  1.000000  0.000000  0.000000  0.000000
                       2.000000  2.000000  2.000000  2.000000  2.000000  2.000000
                       2.000000  1.000000  0.000000  0.000000  0.000000
                       2.000000  2.000000  2.000000  2.000000  2.000000  2.000000
                       2.000000  1.000000  0.000000  0.000000  0.000000
                       2.000000  2.000000  2.000000  2.000000  2.000000  2.000000
                       2.000000  1.000000  0.000000  0.000000  0.000000
                       2.000000  2.000000  2.000000  2.000000  2.000000  2.000000
                       2.000000  1.000000  0.000000  0.000000  0.000000
           occopt           4
        optforces           1
            rprim1     5.0000000000E-01 -5.0000000000E-01  0.0000000000E+00
                       5.0000000000E-01  5.0000000000E-01  0.0000000000E+00
                       0.0000000000E+00  0.0000000000E+00  2.5000000000E+00
            rprim2     5.0000000000E-01 -5.0000000000E-01  0.0000000000E+00
                       5.0000000000E-01  5.0000000000E-01  0.0000000000E+00
                       0.0000000000E+00  0.0000000000E+00  3.0000000000E+00
            rprim3     5.0000000000E-01 -5.0000000000E-01  0.0000000000E+00
                       5.0000000000E-01  5.0000000000E-01  0.0000000000E+00
                       0.0000000000E+00  0.0000000000E+00  3.5000000000E+00
           shiftk      5.00000000E-01  5.00000000E-01  0.00000000E+00
          spgroup1         38
          spgroup2         12
          spgroup3         38
           symrel1     1  0  0   0  1  0   0  0  1       1  0  0   0  1  0   0  0 -1
                       0 -1  0  -1  0  0   0  0 -1       0 -1  0  -1  0  0   0  0  1
           symrel2     1  0  0   0  1  0   0  0  1      -1  0  0   0 -1  0   0  0 -1
                       0 -1  0  -1  0  0   0  0  1       0  1  0   1  0  0   0  0 -1
           symrel3     1  0  0   0  1  0   0  0  1       1  0  0   0  1  0   0  0 -1
                       0 -1  0  -1  0  0   0  0 -1       0 -1  0  -1  0  0   0  0  1
            tnons1     0.0000000  0.0000000  0.0000000     0.0000000  0.0000000  0.4000000
                       0.0000000  0.0000000  0.4000000     0.0000000  0.0000000  0.0000000
            tnons2     0.0000000  0.0000000  0.0000000     0.5000000  0.5000000  0.5000000
                       0.0000000  0.0000000  0.0000000     0.5000000  0.5000000  0.5000000
            tnons3     0.0000000  0.0000000  0.0000000     0.0000000  0.0000000 -0.4285714
                       0.0000000  0.0000000 -0.4285714     0.0000000  0.0000000  0.0000000
           toldff      5.00000000E-05
           tolmxf      5.00000000E-04
           tsmear      4.00000000E-02 Hartree
            typat1     1  1  1
            typat2     1  1  1  1
            typat3     1  1  1  1  1
              wtk        0.12500    0.12500    0.12500    0.12500    0.12500    0.12500
                         0.12500    0.12500
           xangst1     0.0000000000E+00  0.0000000000E+00  0.0000000000E+00
                       0.0000000000E+00  1.9858937942E+00  1.9858937942E+00
                       0.0000000000E+00  0.0000000000E+00  3.9717876413E+00
           xangst2     0.0000000000E+00  0.0000000000E+00  0.0000000000E+00
                       0.0000000000E+00  1.9858937942E+00  1.9858937942E+00
                       0.0000000000E+00  0.0000000000E+00  3.9717876413E+00
                       0.0000000000E+00  1.9858937942E+00  5.9576814355E+00
           xangst3     0.0000000000E+00  0.0000000000E+00  0.0000000000E+00
                       0.0000000000E+00  1.9858937942E+00  1.9858937942E+00
                       0.0000000000E+00  0.0000000000E+00  3.9717876413E+00
                       0.0000000000E+00  1.9858937942E+00  5.9576814355E+00
                       0.0000000000E+00  0.0000000000E+00  7.9435752826E+00
            xcart1     0.0000000000E+00  0.0000000000E+00  0.0000000000E+00
                       0.0000000000E+00  3.7527954000E+00  3.7527954000E+00
                       0.0000000000E+00  0.0000000000E+00  7.5055909000E+00
            xcart2     0.0000000000E+00  0.0000000000E+00  0.0000000000E+00
                       0.0000000000E+00  3.7527954000E+00  3.7527954000E+00
                       0.0000000000E+00  0.0000000000E+00  7.5055909000E+00
                       0.0000000000E+00  3.7527954000E+00  1.1258386300E+01
            xcart3     0.0000000000E+00  0.0000000000E+00  0.0000000000E+00
                       0.0000000000E+00  3.7527954000E+00  3.7527954000E+00
                       0.0000000000E+00  0.0000000000E+00  7.5055909000E+00
                       0.0000000000E+00  3.7527954000E+00  1.1258386300E+01
                       0.0000000000E+00  0.0000000000E+00  1.5011181800E+01
             xred1     0.0000000000E+00  0.0000000000E+00  0.0000000000E+00
                      -4.9999999334E-01  4.9999999334E-01  1.9999999734E-01
                       0.0000000000E+00  0.0000000000E+00  4.0000000000E-01
             xred2     0.0000000000E+00  0.0000000000E+00  0.0000000000E+00
                      -4.9999999334E-01  4.9999999334E-01  1.6666666445E-01
                       0.0000000000E+00  0.0000000000E+00  3.3333333333E-01
                      -4.9999999334E-01  4.9999999334E-01  4.9999999778E-01
             xred3     0.0000000000E+00  0.0000000000E+00  0.0000000000E+00
                      -4.9999999334E-01  4.9999999334E-01  1.4285714095E-01
                       0.0000000000E+00  0.0000000000E+00  2.8571428571E-01
                      -4.9999999334E-01  4.9999999334E-01  4.2857142667E-01
                       0.0000000000E+00  0.0000000000E+00  5.7142857143E-01
            znucl       13.00000

================================================================================

 chkinp: Checking input parameters for consistency, jdtset=   1.

 chkinp: WARNING -
   Chksymbreak=1 . Found potentially symmetry-breaking value of tnons, 
   which is neither a rational fraction in 1/8th nor in 1/12th :
   for the symmetry number    2
   symrel is   1  0  0  0  1  0  0  0 -1
   tnons is     0.000000E+00    0.000000E+00    4.000000E-01
   Please, read the description of the input variable chksymbreak,
   then, if you feel confident, you might switch it to zero, or consult with the forum.

 chkinp: WARNING -
   Chksymbreak=1 . Found potentially symmetry-breaking value of tnons, 
   which is neither a rational fraction in 1/8th nor in 1/12th :
   for the symmetry number    3
   symrel is   0 -1  0 -1  0  0  0  0 -1
   tnons is     0.000000E+00    0.000000E+00    4.000000E-01
   Please, read the description of the input variable chksymbreak,
   then, if you feel confident, you might switch it to zero, or consult with the forum.

 chkinp: Checking input parameters for consistency, jdtset=   2.

 chkinp: Checking input parameters for consistency, jdtset=   3.

 chkinp: WARNING -
   Chksymbreak=1 . Found potentially symmetry-breaking value of tnons, 
   which is neither a rational fraction in 1/8th nor in 1/12th :
   for the symmetry number    2
   symrel is   1  0  0  0  1  0  0  0 -1
   tnons is     0.000000E+00    0.000000E+00   -4.285714E-01
   Please, read the description of the input variable chksymbreak,
   then, if you feel confident, you might switch it to zero, or consult with the forum.

 chkinp: WARNING -
   Chksymbreak=1 . Found potentially symmetry-breaking value of tnons, 
   which is neither a rational fraction in 1/8th nor in 1/12th :
   for the symmetry number    3
   symrel is   0 -1  0 -1  0  0  0  0 -1
   tnons is     0.000000E+00    0.000000E+00   -4.285714E-01
   Please, read the description of the input variable chksymbreak,
   then, if you feel confident, you might switch it to zero, or consult with the forum.
 DATA TYPE INFORMATION: 
 REAL:      Data type name: REAL(DP) 
            Kind value:      8
            Precision:      15
            Smallest nonnegligible quantity relative to 1:  0.22204460E-15
            Smallest positive number:                       0.22250739-307
            Largest representable number:                   0.17976931+309
 INTEGER:   Data type name: INTEGER(default) 
            Kind value: 4
            Bit size:   32
            Largest representable number: 2147483647
 LOGICAL:   Data type name: LOGICAL 
            Kind value: 4
 CHARACTER: Data type name: CHARACTER             Kind value: 1

  ==== OpenMP parallelism is ON ====
- Max_threads:       1
- Num_threads:       1
- Num_procs:         8
- Dynamic:           F
- Nested:            F
 
  ==== Using MPI-2 specifications ==== 
  MPI-IO support is ON
  xmpi_tag_ub ................   2147483647
  xmpi_bsize_ch ..............            1
  xmpi_bsize_int .............            4
  xmpi_bsize_sp ..............            4
  xmpi_bsize_dp ..............            8
  xmpi_bsize_spc .............            8
  xmpi_bsize_dpc .............           16
  xmpio_bsize_frm ............            4
  xmpi_address_kind ..........            8
  xmpi_offset_kind ...........            8
  MPI_WTICK ..................    9.9999999999999995E-007

================================================================================
== DATASET  1 ==================================================================
-   nproc =    4


--- !COMMENT
src_file: m_xgScalapack.F90
src_line: 251
message: |
    xgScalapack in auto mode
...


 getdim_nloc : deduce lmnmax  =   9, lnmax  =   3,
                      lmnmaxso=   9, lnmaxso=   3.
 Exchange-correlation functional for the present dataset will be:
  LDA: new Teter (4/93) with spin-polarized option - ixc=1
 Citation for XC functional:
  S. Goedecker, M. Teter, J. Huetter, PRB 54, 1703 (1996)

 Unit cell volume ucvol=  5.2852396E+02 bohr^3
 Angles (23,13,12)=  9.00000000E+01  9.00000000E+01  9.00000000E+01 degrees

 getcut: wavevector=  0.0000  0.0000  0.0000  ngfft=  12  12  45
         ecut(hartree)=      6.000   => boxcut(ratio)=   2.05055
 kpgio: loop on k-points done in parallel
- pspini: atom type   1  psp file is ../../../../../Psps_for_tests/13al.981214.fhi
- pspatm: opening atomic psp file    ../../../../../Psps_for_tests/13al.981214.fhi
- Aluminum, fhi98PP : Hamann-type, LDA CA PerdewWang, l=2 local
- 13.00000   3.00000    981214                znucl, zion, pspdat
    6    7    2    2       493   0.00000      pspcod,pspxc,lmax,lloc,mmax,r2well

--- !WARNING
src_file: m_pspini.F90
src_line: 1088
message: |
    Pseudopotential file pspxc= 7,
    not equal to input ixc= 1.
    These parameters must agree to get the same xc 
    in ABINIT code as in psp construction.
    Action: check psp design or input file.
    Assume experienced user. Execution will continue.
...

  No XC core correction.
  1.024700          amesh (Hamman grid)
  pspatm : epsatm=    1.36305739
         --- l  ekb(1:nproj) -->
             0    1.768744
             1    0.900554
 pspatm: atomic psp has been read  and splines computed

   3.68025494E+01                                ecore*ucvol(ha*bohr**3)
 ==== Info on pseudopotentials ====
  Norm-conserving pseudopotentials
  Number of pseudopotentials ..    1
  Number of types of atoms   ..    1
  Scalar calculation (no spin-orbit term)
  Nonlocal part applied using Legendre polynomials
  Max number of non-local projectors over l and type   1
  Highest angular momentum +1 .......   3
  Max number of (l,n)   components ..   3
  Max number of (l,m,n) components ..   3

 Info on the Q-grid used for form factors in spline form: 
   Number of q-points for radial functions ffspl ..   3001
   Number of q-points for vlspl ...................   3001
   vloc is computed in Reciprocal Space
   model core charge treated in real-space

  XC functional for type 1 is 7
  Pseudo valence available: no

 wfconv:     7 bands initialized randomly with npw=   356, for ikpt=     1
 wfconv:     7 bands initialized randomly with npw=   368, for ikpt=     2
_setup2: Arith. and geom. avg. npw (full set) are     368.000     367.927
 initro: for itypat=  1, take decay length=      1.2500,
 initro: indeed, coreel=     10.0000, nval=  3 and densty=  0.0000E+00.

================================================================================

=== [ionmov= 2] Broyden-Fletcher-Goldfard-Shanno method (forces)            
================================================================================

--- Iteration: ( 1/10) Internal Cycle: (1/1)
--------------------------------------------------------------------------------

 Cartesian coordinates (xcart) [bohr]
  0.00000000000000E+00  0.00000000000000E+00  0.00000000000000E+00
  0.00000000000000E+00  3.75279540000000E+00  3.75279540000000E+00
  0.00000000000000E+00  0.00000000000000E+00  7.50559090000000E+00
 Reduced coordinates (xred)
  0.00000000000000E+00  0.00000000000000E+00  0.00000000000000E+00
 -4.99999993338299E-01  4.99999993338299E-01  1.99999997335320E-01
  0.00000000000000E+00  0.00000000000000E+00  4.00000000000000E-01
 WARNING: ATOMIC COORDINATES WERE SYMMETRIZED
 DIFFERENCES:
   0.0000000000000000        0.0000000000000000        0.0000000000000000     
   0.0000000000000000        0.0000000000000000        2.6646802542273917E-009
   0.0000000000000000        0.0000000000000000        0.0000000000000000     

---SELF-CONSISTENT-FIELD CONVERGENCE--------------------------------------------
 For input ecut=  2.545795E+00 best grid ngfft=       8       8      30
       max ecut=  2.803173E+00

 ==== FFT mesh ====
  FFT mesh divisions ........................     8    8   30
  Augmented FFT divisions ...................     9    9   30
  FFT algorithm .............................   100
  FFT cache size ............................    16
 getmpw: optimal value of mpw= 85

 getcut: wavevector=  0.0000  0.0000  0.0000  ngfft=  12  12  45
         ecut(hartree)=      6.000   => boxcut(ratio)=   2.05055

 ITER STEP NUMBER     1
 vtorho : nnsclo_now=2, note that nnsclo,dbl_nnsclo,istep=0 0 1
 newocc: new Fermi energy is       0.092313 , with nelect=      9.000000
  Number of bissection calls =  46
 newocc : computed new occ. numbers for occopt= 4 , spin-unpolarized case.
 2.000 2.000 2.000 2.068 0.003 0.001 0.000
 2.000 2.000 2.000 2.060 2.139 0.003 0.003
 2.000 2.000 2.001 1.854 0.693 0.005 0.000
 2.000 2.000 2.000 2.000 0.901 0.204 0.001
 2.000 2.000 2.003 2.018 1.464 0.005 0.004
 2.000 2.000 2.001 1.865 0.694 0.005 0.000
 2.000 2.000 2.003 2.017 1.471 0.005 0.003
 2.000 2.000 2.124 2.140 0.208 0.030 0.003
mkrho: echo density (plane-wave part only)
 Total charge density [el/Bohr^3]
      Maximum=    3.7426E-02  at reduced coord.    0.0000    0.3333    0.3556
      Minimum=    1.0827E-04  at reduced coord.    0.5000    0.5000    0.6889
   Integrated=    9.0000E+00
 Total charge density [el/Bohr^3]
      Maximum=    3.7426E-02  at reduced coord.    0.0000    0.3333    0.3556
      Minimum=    1.0827E-04  at reduced coord.    0.5000    0.5000    0.6889
   Integrated=    9.0000E+00
  rhotov : is_hybrid_ncpp= F
  rhotov : n3xccc=           0
 ETOT  1  -6.1840771996829    -6.184E+00 3.666E-03 1.848E+02 9.162E-03 9.162E-03
 scprqt: <Vxc>= -2.6176074E-01 hartree

 dielmt : 15 largest eigenvalues of the hermitian RPA dielectric matrix
  1-5  : 8.90868E+00 5.51257E+00 2.53854E+00 2.11026E+00 1.80898E+00
  6-10 : 1.80111E+00 1.78448E+00 1.75604E+00 1.73864E+00 1.73111E+00
  11-15: 1.70565E+00 1.69120E+00 1.62063E+00 1.62033E+00 1.58459E+00

 dielmt : 5 smallest eigenvalues of the hermitian RPA dielectric matrix
  1-5  : 1.00000E+00 1.00648E+00 1.00676E+00 1.00678E+00 1.00685E+00

Simple mixing update:
  residual square of the potential :   10.711089805251374
 scfcv_core: previous iteration took 00 [s]

 ITER STEP NUMBER     2
 vtorho : nnsclo_now=2, note that nnsclo,dbl_nnsclo,istep=0 0 2
 newocc: new Fermi energy is       0.121850 , with nelect=      9.000000
  Number of bissection calls =  47
 newocc : computed new occ. numbers for occopt= 4 , spin-unpolarized case.
 2.000 2.000 2.000 2.141 0.004 0.000 0.000
 2.000 2.000 2.000 2.028 2.135 0.056 0.004
 2.000 2.000 2.000 1.307 1.131 0.005 0.001
 2.000 2.000 2.000 2.000 1.503 0.338 0.002
 2.000 2.000 2.021 2.127 1.144 0.005 0.004
 2.000 2.000 2.000 1.307 1.131 0.005 0.001
 2.000 2.000 2.021 2.127 1.144 0.005 0.004
 2.000 2.000 2.141 2.137 0.012 0.000 0.005
mkrho: echo density (plane-wave part only)
 Total charge density [el/Bohr^3]
      Maximum=    3.5185E-02  at reduced coord.    0.0000    0.6667    0.3778
      Minimum=    2.2210E-04  at reduced coord.    0.5000    0.5000    0.6889
   Integrated=    9.0000E+00
 Total charge density [el/Bohr^3]
      Maximum=    3.5185E-02  at reduced coord.    0.0000    0.6667    0.3778
      Minimum=    2.2210E-04  at reduced coord.    0.5000    0.5000    0.6889
   Integrated=    9.0000E+00
  rhotov : is_hybrid_ncpp= F
  rhotov : n3xccc=           0
 ETOT  2  -6.2519483777149    -6.787E-02 8.254E-05 5.791E+00 1.421E-02 5.049E-03
 scprqt: <Vxc>= -2.6961055E-01 hartree

 Pulay update with  1 previous iterations:
 mixing of old trial potential : alpha(m:m-4)=  0.823      0.177
 scfcv_core: previous iteration took 00 [s]

 ITER STEP NUMBER     3
 vtorho : nnsclo_now=1, note that nnsclo,dbl_nnsclo,istep=0 0 3
 newocc: new Fermi energy is       0.109816 , with nelect=      9.000000
  Number of bissection calls =  45
 newocc : computed new occ. numbers for occopt= 4 , spin-unpolarized case.
 2.000 2.000 2.000 2.142 0.005 0.000 0.000
 2.000 2.000 2.000 2.030 2.134 0.045 0.004
 2.000 2.000 2.000 1.252 1.243 0.005 0.000
 2.000 2.000 2.000 2.000 1.462 0.310 0.002
 2.000 2.000 2.017 2.121 1.132 0.005 0.004
 2.000 2.000 2.000 1.252 1.243 0.005 0.000
 2.000 2.000 2.017 2.121 1.132 0.005 0.004
 2.000 2.000 2.141 2.137 0.022 0.000 0.005
mkrho: echo density (plane-wave part only)
 Total charge density [el/Bohr^3]
      Maximum=    3.5085E-02  at reduced coord.    0.0000    0.6667    0.3778
      Minimum=    1.8829E-04  at reduced coord.    0.5000    0.5000    0.6889
   Integrated=    9.0000E+00
 Total charge density [el/Bohr^3]
      Maximum=    3.5085E-02  at reduced coord.    0.0000    0.6667    0.3778
      Minimum=    1.8829E-04  at reduced coord.    0.5000    0.5000    0.6889
   Integrated=    9.0000E+00
  rhotov : is_hybrid_ncpp= F
  rhotov : n3xccc=           0
 ETOT  3  -6.2539357660925    -1.987E-03 2.253E-05 9.942E-03 8.315E-04 4.217E-03
 scprqt: <Vxc>= -2.6841478E-01 hartree

 Pulay update with  2 previous iterations:
 mixing of old trial potential : alpha(m:m-4)=   1.21     -0.172     -0.342E-01
 scfcv_core: previous iteration took 00 [s]

 ITER STEP NUMBER     4
 vtorho : nnsclo_now=1, note that nnsclo,dbl_nnsclo,istep=0 0 4
 newocc: new Fermi energy is       0.110821 , with nelect=      9.000000
  Number of bissection calls =  47
 newocc : computed new occ. numbers for occopt= 4 , spin-unpolarized case.
 2.000 2.000 2.000 2.142 0.005 0.000 0.000
 2.000 2.000 2.000 2.030 2.133 0.046 0.004
 2.000 2.000 2.000 1.256 1.248 0.005 0.000
 2.000 2.000 2.000 2.000 1.476 0.309 0.002
 2.000 2.000 2.017 2.122 1.116 0.005 0.004
 2.000 2.000 2.000 1.256 1.248 0.005 0.000
 2.000 2.000 2.017 2.122 1.116 0.005 0.004
 2.000 2.000 2.140 2.136 0.021 0.000 0.005
mkrho: echo density (plane-wave part only)
 Total charge density [el/Bohr^3]
      Maximum=    3.4952E-02  at reduced coord.    0.0000    0.6667    0.3778
      Minimum=    1.8654E-04  at reduced coord.    0.5000    0.5000    0.6889
   Integrated=    9.0000E+00
 Total charge density [el/Bohr^3]
      Maximum=    3.4952E-02  at reduced coord.    0.0000    0.6667    0.3778
      Minimum=    1.8654E-04  at reduced coord.    0.5000    0.5000    0.6889
   Integrated=    9.0000E+00
  rhotov : is_hybrid_ncpp= F
  rhotov : n3xccc=           0
 ETOT  4  -6.2539520670585    -1.630E-05 8.709E-07 1.232E-03 1.110E-04 4.328E-03
 scprqt: <Vxc>= -2.6844765E-01 hartree

 Pulay update with  3 previous iterations:
 mixing of old trial potential : alpha(m:m-4)=  0.977      0.414E-01 -0.180E-01  0.102E-03
 scfcv_core: previous iteration took 00 [s]

 ITER STEP NUMBER     5
 vtorho : nnsclo_now=1, note that nnsclo,dbl_nnsclo,istep=0 0 5
 newocc: new Fermi energy is       0.110706 , with nelect=      9.000000
  Number of bissection calls =  48
 newocc : computed new occ. numbers for occopt= 4 , spin-unpolarized case.
 2.000 2.000 2.000 2.142 0.005 0.000 0.000
 2.000 2.000 2.000 2.030 2.133 0.046 0.004
 2.000 2.000 2.000 1.255 1.249 0.005 0.000
 2.000 2.000 2.000 2.000 1.475 0.309 0.002
 2.000 2.000 2.017 2.122 1.117 0.005 0.004
 2.000 2.000 2.000 1.255 1.249 0.005 0.000
 2.000 2.000 2.017 2.122 1.117 0.005 0.004
 2.000 2.000 2.140 2.136 0.021 0.000 0.005
mkrho: echo density (plane-wave part only)
 Total charge density [el/Bohr^3]
      Maximum=    3.4955E-02  at reduced coord.    0.0000    0.6667    0.3778
      Minimum=    1.8595E-04  at reduced coord.    0.5000    0.5000    0.6889
   Integrated=    9.0000E+00
 Total charge density [el/Bohr^3]
      Maximum=    3.4955E-02  at reduced coord.    0.0000    0.6667    0.3778
      Minimum=    1.8595E-04  at reduced coord.    0.5000    0.5000    0.6889
   Integrated=    9.0000E+00
  rhotov : is_hybrid_ncpp= F
  rhotov : n3xccc=           0
 ETOT  5  -6.2539524330930    -3.660E-07 9.855E-08 6.192E-06 1.705E-05 4.311E-03
 scprqt: <Vxc>= -2.6842528E-01 hartree

 dielmt : 15 largest eigenvalues of the hermitian RPA dielectric matrix
  1-5  : 9.03021E+00 5.72843E+00 2.61099E+00 2.22795E+00 1.80411E+00
  6-10 : 1.80411E+00 1.79666E+00 1.76648E+00 1.74792E+00 1.74791E+00
  11-15: 1.74307E+00 1.68098E+00 1.64245E+00 1.62350E+00 1.60761E+00

 dielmt : 5 smallest eigenvalues of the hermitian RPA dielectric matrix
  1-5  : 1.00000E+00 1.01100E+00 1.01170E+00 1.01170E+00 1.01197E+00

 Pulay update with  4 previous iterations:
 mixing of old trial potential : alpha(m:m-4)=   1.11     -0.992E-01 -0.832E-02  0.126E-02  0.113E-03
 scfcv_core: previous iteration took 00 [s]

 ITER STEP NUMBER     6
 vtorho : nnsclo_now=1, note that nnsclo,dbl_nnsclo,istep=0 0 6
 newocc: new Fermi energy is       0.110722 , with nelect=      9.000000
  Number of bissection calls =  44
 newocc : computed new occ. numbers for occopt= 4 , spin-unpolarized case.
 2.000 2.000 2.000 2.142 0.005 0.000 0.000
 2.000 2.000 2.000 2.030 2.133 0.046 0.004
 2.000 2.000 2.000 1.255 1.249 0.005 0.000
 2.000 2.000 2.000 2.000 1.475 0.309 0.002
 2.000 2.000 2.017 2.122 1.117 0.005 0.004
 2.000 2.000 2.000 1.255 1.249 0.005 0.000
 2.000 2.000 2.017 2.122 1.117 0.005 0.004
 2.000 2.000 2.140 2.136 0.021 0.000 0.005
mkrho: echo density (plane-wave part only)
 Total charge density [el/Bohr^3]
      Maximum=    3.4954E-02  at reduced coord.    0.0000    0.3333    0.3778
      Minimum=    1.8591E-04  at reduced coord.    0.5000    0.5000    0.6889
   Integrated=    9.0000E+00
 Total charge density [el/Bohr^3]
      Maximum=    3.4954E-02  at reduced coord.    0.0000    0.3333    0.3778
      Minimum=    1.8591E-04  at reduced coord.    0.5000    0.5000    0.6889
   Integrated=    9.0000E+00
  rhotov : is_hybrid_ncpp= F
  rhotov : n3xccc=           0
 ETOT  6  -6.2539524363467    -3.254E-09 8.751E-09 1.682E-08 1.865E-06 4.310E-03
 scprqt: <Vxc>= -2.6842381E-01 hartree

 At SCF step    6, forces are converged : 
  for the second time, max diff in force=  1.865E-06 < toldff=  5.000E-05

 Cartesian components of stress tensor (hartree/bohr^3)
  sigma(1 1)=  1.30985025E-04  sigma(3 2)=  0.00000000E+00
  sigma(2 2)=  1.30985770E-04  sigma(3 1)=  0.00000000E+00
  sigma(3 3)= -5.46716117E-05  sigma(2 1)=  0.00000000E+00

 fftdatar_write: About to write data to: tbase4_7o_DS1_TIM1_DEN with iomode IO_MODE_FORTRAN
 IO operation completed. cpu_time:       0.0 [s], walltime:       0.0 [s]
 Write iteration in HIST netCDF file

---OUTPUT-----------------------------------------------------------------------

 Cartesian coordinates (xcart) [bohr]
  0.00000000000000E+00  0.00000000000000E+00  0.00000000000000E+00
  0.00000000000000E+00  3.75279540000000E+00  3.75279545000000E+00
  0.00000000000000E+00  0.00000000000000E+00  7.50559090000000E+00
 Reduced coordinates (xred)
  0.00000000000000E+00  0.00000000000000E+00  0.00000000000000E+00
 -4.99999993338299E-01  4.99999993338299E-01  2.00000000000000E-01
  0.00000000000000E+00  0.00000000000000E+00  4.00000000000000E-01
 Cartesian forces (fcart) [Ha/bohr]; max,rms= 4.30955E-03 2.03154E-03 (free atoms)
 -5.51453741702018E-25  1.72526841743883E-08 -4.30955486108785E-03
 -5.51453741702018E-25 -3.45053683487766E-08 -0.00000000000000E+00
  1.10290748340404E-24  1.72526841743883E-08  4.30955486108785E-03
 Reduced forces (fred)
  6.47457946699315E-08 -6.47457946699315E-08  8.08643893710794E-02
 -1.29491589339863E-07  1.29491589339863E-07  0.00000000000000E+00
  6.47457946699315E-08 -6.47457946699315E-08 -8.08643893710794E-02
 Total energy (etotal) [Ha]= -6.25395243634670E+00
 fconv : at Broyd/MD step   1, gradients have not converged yet. 
  max grad (force/stress) = 4.3096E-03 > tolmxf= 5.0000E-04 ha/bohr (free atoms)

Inverse hessian has been initialized.
 EXIT:           1           1
 mover: previous time step took 00 [s]

--- Iteration: ( 2/10) Internal Cycle: (1/1)
--------------------------------------------------------------------------------

 Cartesian coordinates (xcart) [bohr]
  0.00000000000000E+00  1.72526841743883E-08 -4.30955486108786E-03
  0.00000000000000E+00  3.75279536549463E+00  3.75279545000000E+00
  0.00000000000000E+00  1.72526841743883E-08  7.50990045486109E+00
 Reduced coordinates (xred)
 -2.29864435781976E-09  2.29864435781976E-09 -2.29671716378139E-04
 -4.99999988741011E-01  4.99999988741011E-01  2.00000000000000E-01
 -2.29864435781976E-09  2.29864435781976E-09  4.00229671716378E-01

---SELF-CONSISTENT-FIELD CONVERGENCE--------------------------------------------
 For input ecut=  2.545795E+00 best grid ngfft=       8       8      30
       max ecut=  2.803173E+00

 ==== FFT mesh ====
  FFT mesh divisions ........................     8    8   30
  Augmented FFT divisions ...................     9    9   30
  FFT algorithm .............................   100
  FFT cache size ............................    16
 getmpw: optimal value of mpw= 85

 getcut: wavevector=  0.0000  0.0000  0.0000  ngfft=  12  12  45
         ecut(hartree)=      6.000   => boxcut(ratio)=   2.05055

 ITER STEP NUMBER     1
 vtorho : nnsclo_now=2, note that nnsclo,dbl_nnsclo,istep=0 0 1
 newocc: new Fermi energy is       0.110753 , with nelect=      9.000000
  Number of bissection calls =  47
 newocc : computed new occ. numbers for occopt= 4 , spin-unpolarized case.
 2.000 2.000 2.000 2.142 0.005 0.000 0.000
 2.000 2.000 2.000 2.029 2.133 0.047 0.004
 2.000 2.000 2.000 1.262 1.237 0.005 0.000
 2.000 2.000 2.000 2.000 1.481 0.314 0.002
 2.000 2.000 2.017 2.123 1.116 0.005 0.004
 2.000 2.000 2.000 1.262 1.237 0.005 0.000
 2.000 2.000 2.017 2.123 1.116 0.005 0.004
 2.000 2.000 2.140 2.136 0.019 0.000 0.005
mkrho: echo density (plane-wave part only)
 Total charge density [el/Bohr^3]
      Maximum=    3.4943E-02  at reduced coord.    0.0000    0.6667    0.3778
      Minimum=    1.8653E-04  at reduced coord.    0.5000    0.5000    0.6889
   Integrated=    9.0000E+00
 Total charge density [el/Bohr^3]
      Maximum=    3.4943E-02  at reduced coord.    0.0000    0.6667    0.3778
      Minimum=    1.8653E-04  at reduced coord.    0.5000    0.5000    0.6889
   Integrated=    9.0000E+00
  rhotov : is_hybrid_ncpp= F
  rhotov : n3xccc=           0
 ETOT  1  -6.2539883077703    -6.254E+00 1.389E-09 1.494E-03 1.059E-04 4.204E-03
 scprqt: <Vxc>= -2.6850134E-01 hartree

 dielmt : 15 largest eigenvalues of the hermitian RPA dielectric matrix
  1-5  : 9.02265E+00 5.72480E+00 2.61056E+00 2.22875E+00 1.80358E+00
  6-10 : 1.80358E+00 1.79651E+00 1.76623E+00 1.74749E+00 1.74749E+00
  11-15: 1.74352E+00 1.68028E+00 1.64269E+00 1.62324E+00 1.60762E+00

 dielmt : 5 smallest eigenvalues of the hermitian RPA dielectric matrix
  1-5  : 1.00000E+00 1.01104E+00 1.01174E+00 1.01174E+00 1.01202E+00

Simple mixing update:
  residual square of the potential :   1.0474275539204168E-004
 scfcv_core: previous iteration took 00 [s]

 ITER STEP NUMBER     2
 vtorho : nnsclo_now=2, note that nnsclo,dbl_nnsclo,istep=0 0 2
 newocc: new Fermi energy is       0.110758 , with nelect=      9.000000
  Number of bissection calls =  46
 newocc : computed new occ. numbers for occopt= 4 , spin-unpolarized case.
 2.000 2.000 2.000 2.142 0.005 0.000 0.000
 2.000 2.000 2.000 2.029 2.133 0.047 0.004
 2.000 2.000 2.000 1.261 1.240 0.005 0.000
 2.000 2.000 2.000 2.000 1.480 0.314 0.002
 2.000 2.000 2.017 2.123 1.115 0.005 0.004
 2.000 2.000 2.000 1.261 1.240 0.005 0.000
 2.000 2.000 2.017 2.123 1.115 0.005 0.004
 2.000 2.000 2.140 2.136 0.020 0.000 0.005
mkrho: echo density (plane-wave part only)
 Total charge density [el/Bohr^3]
      Maximum=    3.4936E-02  at reduced coord.    0.0000    0.6667    0.3778
      Minimum=    1.8661E-04  at reduced coord.    0.5000    0.5000    0.6889
   Integrated=    9.0000E+00
 Total charge density [el/Bohr^3]
      Maximum=    3.4936E-02  at reduced coord.    0.0000    0.6667    0.3778
      Minimum=    1.8661E-04  at reduced coord.    0.5000    0.5000    0.6889
   Integrated=    9.0000E+00
  rhotov : is_hybrid_ncpp= F
  rhotov : n3xccc=           0
 ETOT  2  -6.2539890833345    -7.756E-07 1.976E-11 5.251E-05 8.503E-06 4.195E-03
 scprqt: <Vxc>= -2.6849479E-01 hartree

 Pulay update with  1 previous iterations:
 mixing of old trial potential : alpha(m:m-4)=  0.962      0.382E-01
 scfcv_core: previous iteration took 00 [s]

 ITER STEP NUMBER     3
 vtorho : nnsclo_now=1, note that nnsclo,dbl_nnsclo,istep=0 0 3
 newocc: new Fermi energy is       0.110776 , with nelect=      9.000000
  Number of bissection calls =  47
 newocc : computed new occ. numbers for occopt= 4 , spin-unpolarized case.
 2.000 2.000 2.000 2.142 0.005 0.000 0.000
 2.000 2.000 2.000 2.029 2.133 0.047 0.004
 2.000 2.000 2.000 1.261 1.239 0.005 0.000
 2.000 2.000 2.000 2.000 1.480 0.314 0.002
 2.000 2.000 2.017 2.123 1.115 0.005 0.004
 2.000 2.000 2.000 1.261 1.239 0.005 0.000
 2.000 2.000 2.017 2.123 1.115 0.005 0.004
 2.000 2.000 2.140 2.136 0.020 0.000 0.005
mkrho: echo density (plane-wave part only)
 Total charge density [el/Bohr^3]
      Maximum=    3.4935E-02  at reduced coord.    0.0000    0.3333    0.3778
      Minimum=    1.8671E-04  at reduced coord.    0.5000    0.5000    0.6889
   Integrated=    9.0000E+00
 Total charge density [el/Bohr^3]
      Maximum=    3.4935E-02  at reduced coord.    0.0000    0.3333    0.3778
      Minimum=    1.8671E-04  at reduced coord.    0.5000    0.5000    0.6889
   Integrated=    9.0000E+00
  rhotov : is_hybrid_ncpp= F
  rhotov : n3xccc=           0
 ETOT  3  -6.2539891005601    -1.723E-08 2.138E-10 3.807E-07 3.668E-06 4.199E-03
 scprqt: <Vxc>= -2.6849858E-01 hartree

 At SCF step    3, forces are converged : 
  for the second time, max diff in force=  3.668E-06 < toldff=  5.000E-05

 Cartesian components of stress tensor (hartree/bohr^3)
  sigma(1 1)=  1.32118573E-04  sigma(3 2)=  0.00000000E+00
  sigma(2 2)=  1.32118577E-04  sigma(3 1)=  0.00000000E+00
  sigma(3 3)= -5.32826553E-05  sigma(2 1)=  0.00000000E+00

 fftdatar_write: About to write data to: tbase4_7o_DS1_TIM2_DEN with iomode IO_MODE_FORTRAN
 IO operation completed. cpu_time:       0.0 [s], walltime:       0.0 [s]
 Write iteration in HIST netCDF file

---OUTPUT-----------------------------------------------------------------------

 Cartesian coordinates (xcart) [bohr]
  0.00000000000000E+00  1.72526841743883E-08 -4.30955486108786E-03
  0.00000000000000E+00  3.75279536549463E+00  3.75279545000000E+00
  0.00000000000000E+00  1.72526841743883E-08  7.50990045486109E+00
 Reduced coordinates (xred)
 -2.29864435781976E-09  2.29864435781976E-09 -2.29671716378139E-04
 -4.99999988741011E-01  4.99999988741011E-01  2.00000000000000E-01
 -2.29864435781976E-09  2.29864435781976E-09  4.00229671716378E-01
 Cartesian forces (fcart) [Ha/bohr]; max,rms= 4.19886E-03 1.97936E-03 (free atoms)
  3.44658588563761E-26 -1.48321829319892E-09 -4.19886140995338E-03
 -6.89317177127523E-26  2.96643658639784E-09 -0.00000000000000E+00
  3.44658588563761E-26 -1.48321829319892E-09  4.19886140995338E-03
 Reduced forces (fred)
 -5.56621486207368E-09  5.56621486207368E-09  7.87873399722682E-02
  1.11324297241474E-08 -1.11324297241474E-08 -0.00000000000000E+00
 -5.56621486207368E-09  5.56621486207368E-09 -7.87873399722682E-02
 Total energy (etotal) [Ha]= -6.25398910056006E+00

 Difference of energy with previous step (new-old):
           Absolute (Ha)=-3.66642E-05
           Relative     =-5.86255E-06
 fconv : at Broyd/MD step   2, gradients have not converged yet. 
  max grad (force/stress) = 4.1989E-03 > tolmxf= 5.0000E-04 ha/bohr (free atoms)

 EXIT:           1           1
 mover: previous time step took 00 [s]

--- Iteration: ( 3/10) Internal Cycle: (1/1)
--------------------------------------------------------------------------------

 Cartesian coordinates (xcart) [bohr]
  0.00000000000000E+00 -4.04924703117100E-08 -1.67781046787792E-01
  0.00000000000000E+00  3.75279548098494E+00  3.75279545000000E+00
  0.00000000000000E+00 -4.04924703117100E-08  7.67337194678781E+00
 Reduced coordinates (xred)
  5.39497433995636E-09 -5.39497433995636E-09 -8.94165690740178E-03
 -5.00000004128248E-01  5.00000004128248E-01  2.00000000000000E-01
  5.39497433995636E-09 -5.39497433995636E-09  4.08941656907403E-01

---SELF-CONSISTENT-FIELD CONVERGENCE--------------------------------------------
 For input ecut=  2.545795E+00 best grid ngfft=       8       8      30
       max ecut=  2.803173E+00

 ==== FFT mesh ====
  FFT mesh divisions ........................     8    8   30
  Augmented FFT divisions ...................     9    9   30
  FFT algorithm .............................   100
  FFT cache size ............................    16
 getmpw: optimal value of mpw= 85

 getcut: wavevector=  0.0000  0.0000  0.0000  ngfft=  12  12  45
         ecut(hartree)=      6.000   => boxcut(ratio)=   2.05055

 ITER STEP NUMBER     1
 vtorho : nnsclo_now=2, note that nnsclo,dbl_nnsclo,istep=0 0 1
 newocc: new Fermi energy is       0.112467 , with nelect=      9.000000
  Number of bissection calls =  47
 newocc : computed new occ. numbers for occopt= 4 , spin-unpolarized case.
 2.000 2.000 2.000 2.132 0.003 0.000 0.000
 2.000 2.000 2.001 2.016 2.125 0.104 0.005
 2.000 2.000 2.000 1.503 0.798 0.005 0.001
 2.000 2.000 2.000 2.000 1.700 0.585 0.003
 2.000 2.000 2.039 2.142 1.032 0.005 0.002
 2.000 2.000 2.000 1.503 0.798 0.005 0.001
 2.000 2.000 2.039 2.142 1.032 0.005 0.002
 2.000 2.001 2.133 2.132 0.000 0.002 0.003
mkrho: echo density (plane-wave part only)
 Total charge density [el/Bohr^3]
      Maximum=    3.4433E-02  at reduced coord.    0.0000    0.3333    0.4000
      Minimum=    2.1659E-04  at reduced coord.    0.5000    0.5000    0.6889
   Integrated=    9.0000E+00
 Total charge density [el/Bohr^3]
      Maximum=    3.4433E-02  at reduced coord.    0.0000    0.3333    0.4000
      Minimum=    2.1659E-04  at reduced coord.    0.5000    0.5000    0.6889
   Integrated=    9.0000E+00
  rhotov : is_hybrid_ncpp= F
  rhotov : n3xccc=           0
 ETOT  1  -6.2541343755422    -6.254E+00 6.317E-07 1.137E+00 4.155E-03 4.362E-05
 scprqt: <Vxc>= -2.7134163E-01 hartree

 dielmt : 15 largest eigenvalues of the hermitian RPA dielectric matrix
  1-5  : 8.75880E+00 5.55380E+00 2.60330E+00 2.26215E+00 1.79460E+00
  6-10 : 1.78886E+00 1.78886E+00 1.76103E+00 1.75952E+00 1.73353E+00
  11-15: 1.73353E+00 1.66356E+00 1.65144E+00 1.61470E+00 1.61331E+00

 dielmt : 5 smallest eigenvalues of the hermitian RPA dielectric matrix
  1-5  : 1.00000E+00 1.01293E+00 1.01381E+00 1.01381E+00 1.01415E+00

Simple mixing update:
  residual square of the potential :   9.2199427834338335E-002
 scfcv_core: previous iteration took 00 [s]

 ITER STEP NUMBER     2
 vtorho : nnsclo_now=2, note that nnsclo,dbl_nnsclo,istep=0 0 2
 newocc: new Fermi energy is       0.112389 , with nelect=      9.000000
  Number of bissection calls =  48
 newocc : computed new occ. numbers for occopt= 4 , spin-unpolarized case.
 2.000 2.000 2.000 2.134 0.003 0.000 0.000
 2.000 2.000 2.001 2.017 2.122 0.099 0.005
 2.000 2.000 2.000 1.483 0.875 0.005 0.001
 2.000 2.000 2.000 2.000 1.671 0.564 0.003
 2.000 2.000 2.034 2.142 1.010 0.005 0.003
 2.000 2.000 2.000 1.483 0.875 0.005 0.001
 2.000 2.000 2.034 2.142 1.010 0.005 0.003
 2.000 2.001 2.131 2.130 0.001 0.001 0.003
mkrho: echo density (plane-wave part only)
 Total charge density [el/Bohr^3]
      Maximum=    3.4175E-02  at reduced coord.    0.0000    0.3333    0.4000
      Minimum=    2.1887E-04  at reduced coord.    0.5000    0.5000    0.6889
   Integrated=    9.0000E+00
 Total charge density [el/Bohr^3]
      Maximum=    3.4175E-02  at reduced coord.    0.0000    0.3333    0.4000
      Minimum=    2.1887E-04  at reduced coord.    0.5000    0.5000    0.6889
   Integrated=    9.0000E+00
  rhotov : is_hybrid_ncpp= F
  rhotov : n3xccc=           0
 ETOT  2  -6.2546788779701    -5.445E-04 6.766E-08 5.869E-02 9.384E-05 1.375E-04
 scprqt: <Vxc>= -2.7116443E-01 hartree

 Pulay update with  1 previous iterations:
 mixing of old trial potential : alpha(m:m-4)=  0.949      0.507E-01
 scfcv_core: previous iteration took 00 [s]

 ITER STEP NUMBER     3
 vtorho : nnsclo_now=1, note that nnsclo,dbl_nnsclo,istep=0 0 3
 newocc: new Fermi energy is       0.112899 , with nelect=      9.000000
  Number of bissection calls =  47
 newocc : computed new occ. numbers for occopt= 4 , spin-unpolarized case.
 2.000 2.000 2.000 2.133 0.003 0.000 0.000
 2.000 2.000 2.001 2.017 2.122 0.101 0.005
 2.000 2.000 2.000 1.491 0.862 0.005 0.001
 2.000 2.000 2.000 2.000 1.676 0.567 0.003
 2.000 2.000 2.035 2.142 1.010 0.005 0.003
 2.000 2.000 2.000 1.491 0.862 0.005 0.001
 2.000 2.000 2.035 2.142 1.010 0.005 0.003
 2.000 2.001 2.131 2.130 0.001 0.002 0.003
mkrho: echo density (plane-wave part only)
 Total charge density [el/Bohr^3]
      Maximum=    3.4173E-02  at reduced coord.    0.0000    0.3333    0.4000
      Minimum=    2.2204E-04  at reduced coord.    0.5000    0.5000    0.6889
   Integrated=    9.0000E+00
 Total charge density [el/Bohr^3]
      Maximum=    3.4173E-02  at reduced coord.    0.0000    0.3333    0.4000
      Minimum=    2.2204E-04  at reduced coord.    0.5000    0.5000    0.6889
   Integrated=    9.0000E+00
  rhotov : is_hybrid_ncpp= F
  rhotov : n3xccc=           0
 ETOT  3  -6.2546986485945    -1.977E-05 2.471E-07 7.703E-04 8.342E-05 2.209E-04
 scprqt: <Vxc>= -2.7127401E-01 hartree

 Pulay update with  2 previous iterations:
 mixing of old trial potential : alpha(m:m-4)=  0.945      0.620E-01 -0.738E-02
 scfcv_core: previous iteration took 00 [s]

 ITER STEP NUMBER     4
 vtorho : nnsclo_now=1, note that nnsclo,dbl_nnsclo,istep=0 0 4
 newocc: new Fermi energy is       0.112772 , with nelect=      9.000000
  Number of bissection calls =  48
 newocc : computed new occ. numbers for occopt= 4 , spin-unpolarized case.
 2.000 2.000 2.000 2.133 0.003 0.000 0.000
 2.000 2.000 2.001 2.017 2.122 0.101 0.005
 2.000 2.000 2.000 1.490 0.863 0.005 0.001
 2.000 2.000 2.000 2.000 1.675 0.566 0.003
 2.000 2.000 2.035 2.142 1.010 0.005 0.003
 2.000 2.000 2.000 1.490 0.863 0.005 0.001
 2.000 2.000 2.035 2.142 1.010 0.005 0.003
 2.000 2.001 2.131 2.130 0.001 0.002 0.003
mkrho: echo density (plane-wave part only)
 Total charge density [el/Bohr^3]
      Maximum=    3.4166E-02  at reduced coord.    0.0000    0.3333    0.4000
      Minimum=    2.2194E-04  at reduced coord.    0.5000    0.5000    0.6889
   Integrated=    9.0000E+00
 Total charge density [el/Bohr^3]
      Maximum=    3.4166E-02  at reduced coord.    0.0000    0.3333    0.4000
      Minimum=    2.2194E-04  at reduced coord.    0.5000    0.5000    0.6889
   Integrated=    9.0000E+00
  rhotov : is_hybrid_ncpp= F
  rhotov : n3xccc=           0
 ETOT  4  -6.2546989906721    -3.421E-07 2.198E-09 1.195E-06 1.257E-05 2.083E-04
 scprqt: <Vxc>= -2.7126754E-01 hartree

 Pulay update with  3 previous iterations:
 mixing of old trial potential : alpha(m:m-4)=   1.17     -0.158     -0.141E-01  0.118E-02
 scfcv_core: previous iteration took 00 [s]

 ITER STEP NUMBER     5
 vtorho : nnsclo_now=1, note that nnsclo,dbl_nnsclo,istep=0 0 5
 newocc: new Fermi energy is       0.112779 , with nelect=      9.000000
  Number of bissection calls =  47
 newocc : computed new occ. numbers for occopt= 4 , spin-unpolarized case.
 2.000 2.000 2.000 2.133 0.003 0.000 0.000
 2.000 2.000 2.001 2.017 2.122 0.101 0.005
 2.000 2.000 2.000 1.491 0.863 0.005 0.001
 2.000 2.000 2.000 2.000 1.675 0.566 0.003
 2.000 2.000 2.035 2.142 1.010 0.005 0.003
 2.000 2.000 2.000 1.491 0.863 0.005 0.001
 2.000 2.000 2.035 2.142 1.010 0.005 0.003
 2.000 2.001 2.131 2.130 0.001 0.002 0.003
mkrho: echo density (plane-wave part only)
 Total charge density [el/Bohr^3]
      Maximum=    3.4165E-02  at reduced coord.    0.0000    0.3333    0.4000
      Minimum=    2.2196E-04  at reduced coord.    0.5000    0.5000    0.6889
   Integrated=    9.0000E+00
 Total charge density [el/Bohr^3]
      Maximum=    3.4165E-02  at reduced coord.    0.0000    0.3333    0.4000
      Minimum=    2.2196E-04  at reduced coord.    0.5000    0.5000    0.6889
   Integrated=    9.0000E+00
  rhotov : is_hybrid_ncpp= F
  rhotov : n3xccc=           0
 ETOT  5  -6.2546989923201    -1.648E-09 1.370E-10 2.283E-08 1.471E-06 2.068E-04
 scprqt: <Vxc>= -2.7126833E-01 hartree

 At SCF step    5, forces are converged : 
  for the second time, max diff in force=  1.471E-06 < toldff=  5.000E-05

 Cartesian components of stress tensor (hartree/bohr^3)
  sigma(1 1)=  1.70726823E-04  sigma(3 2)=  0.00000000E+00
  sigma(2 2)=  1.70726823E-04  sigma(3 1)=  0.00000000E+00
  sigma(3 3)= -1.04518013E-06  sigma(2 1)=  0.00000000E+00

 fftdatar_write: About to write data to: tbase4_7o_DS1_TIM3_DEN with iomode IO_MODE_FORTRAN
 IO operation completed. cpu_time:       0.0 [s], walltime:       0.0 [s]
 Write iteration in HIST netCDF file

---OUTPUT-----------------------------------------------------------------------

 Cartesian coordinates (xcart) [bohr]
  0.00000000000000E+00 -4.04924703117100E-08 -1.67781046787792E-01
  0.00000000000000E+00  3.75279548098494E+00  3.75279545000000E+00
  0.00000000000000E+00 -4.04924703117100E-08  7.67337194678781E+00
 Reduced coordinates (xred)
  5.39497433995636E-09 -5.39497433995636E-09 -8.94165690740178E-03
 -5.00000004128248E-01  5.00000004128248E-01  2.00000000000000E-01
  5.39497433995636E-09 -5.39497433995636E-09  4.08941656907403E-01
 Cartesian forces (fcart) [Ha/bohr]; max,rms= 2.06838E-04 9.75042E-05 (free atoms)
 -0.00000000000000E+00  6.02852660312619E-10 -2.06837617999508E-04
 -0.00000000000000E+00 -1.20570532062524E-09 -0.00000000000000E+00
 -0.00000000000000E+00  6.02852660312619E-10  2.06837617999508E-04
 Reduced forces (fred)
  2.26238272064159E-09 -2.26238272064159E-09  3.88109635858695E-03
 -4.52476544128318E-09  4.52476544128318E-09  0.00000000000000E+00
  2.26238272064159E-09 -2.26238272064159E-09 -3.88109635858695E-03
 Total energy (etotal) [Ha]= -6.25469899232005E+00

 Difference of energy with previous step (new-old):
           Absolute (Ha)=-7.09892E-04
           Relative     =-1.13504E-04

 At Broyd/MD step   3, gradients are converged : 
  max grad (force/stress) = 2.0684E-04 < tolmxf= 5.0000E-04 ha/bohr (free atoms)

================================================================================

 ----iterations are completed or convergence reached----

 Mean square residual over all n,k,spin=   10.292E-12; max=  13.701E-11
  -0.1250  0.0000  0.0000    1  2.06701E-11 kpt; spin; max resid(k); each band:
  4.81E-12 6.05E-12 1.96E-11 5.62E-12 2.07E-11 1.78E-12 5.96E-12
  -0.3750  0.0000  0.0000    1  6.44470E-12 kpt; spin; max resid(k); each band:
  2.85E-12 6.44E-12 2.78E-12 2.32E-12 4.59E-13 6.35E-12 4.27E-12
  -0.2500  0.1250  0.0000    1  2.24045E-11 kpt; spin; max resid(k); each band:
  4.62E-12 5.85E-12 1.91E-11 6.28E-12 1.02E-12 1.49E-12 2.24E-11
   0.5000  0.1250  0.0000    1  8.68691E-12 kpt; spin; max resid(k); each band:
  2.23E-13 2.88E-12 8.69E-12 8.13E-14 1.28E-13 2.62E-12 8.57E-12
  -0.3750  0.2500  0.0000    1  1.37004E-10 kpt; spin; max resid(k); each band:
  2.60E-12 5.87E-12 1.75E-12 1.25E-12 3.93E-13 6.83E-12 1.37E-10
   0.2500  0.1250  0.0000    1  2.24045E-11 kpt; spin; max resid(k); each band:
  4.62E-12 5.85E-12 1.91E-11 6.28E-12 1.02E-12 1.49E-12 2.24E-11
   0.3750  0.2500  0.0000    1  1.37008E-10 kpt; spin; max resid(k); each band:
  2.60E-12 5.87E-12 1.75E-12 1.25E-12 3.93E-13 6.83E-12 1.37E-10
   0.5000  0.3750  0.0000    1  2.34226E-11 kpt; spin; max resid(k); each band:
  1.96E-12 1.16E-12 2.57E-13 1.23E-13 2.17E-12 2.34E-11 1.13E-12

 outwf: write wavefunction to file tbase4_7o_DS1_WFK, with iomode -1
 outwf with iomode: -1, cpu_time:     0.00[s], walltime:     0.00 [s]
 prteigrs : about to open file tbase4_7o_DS1_EIG
 Fermi (or HOMO) energy (hartree) =   0.11278   Average Vxc (hartree)=  -0.27127
 Eigenvalues (hartree) for nkpt=   8  k points:
 kpt#   1, nband=  7, wtk=  0.12500, kpt= -0.1250  0.0000  0.0000 (reduced coord)
  -0.25690   -0.17597   -0.05911    0.05818    0.17162    0.23046    0.30446
      occupation numbers for kpt#   1
   2.00000    2.00000    2.00000    2.13319    0.00291    0.00019    0.00000
 kpt#   2, nband=  7, wtk=  0.12500, kpt= -0.3750  0.0000  0.0000 (reduced coord)
  -0.17209   -0.09209   -0.00649    0.02370    0.07090    0.13879    0.18634
      occupation numbers for kpt#   2
   2.00000    2.00000    2.00057    2.01713    2.12203    0.10138    0.00517
 kpt#   3, nband=  7, wtk=  0.12500, kpt= -0.2500  0.1250  0.0000 (reduced coord)
  -0.21430   -0.13384   -0.01737    0.09773    0.11226    0.18966    0.21307
      occupation numbers for kpt#   3
   2.00000    2.00000    2.00012    1.49052    0.86309    0.00485    0.00118
 kpt#   4, nband=  7, wtk=  0.12500, kpt=  0.5000  0.1250  0.0000 (reduced coord)
  -0.09089   -0.08630   -0.01130   -0.00800    0.09288    0.11973    0.20090
      occupation numbers for kpt#   4
   2.00000    2.00000    2.00030    2.00047    1.67477    0.56587    0.00294
 kpt#   5, nband=  7, wtk=  0.12500, kpt= -0.3750  0.2500  0.0000 (reduced coord)
  -0.13023   -0.05071    0.03223    0.06450    0.10888    0.17762    0.20325
      occupation numbers for kpt#   5
   2.00000    2.00000    2.03488    2.14167    1.00960    0.00467    0.00253
 kpt#   6, nband=  7, wtk=  0.12500, kpt=  0.2500  0.1250  0.0000 (reduced coord)
  -0.21430   -0.13384   -0.01737    0.09773    0.11226    0.18966    0.21307
      occupation numbers for kpt#   6
   2.00000    2.00000    2.00012    1.49052    0.86309    0.00485    0.00118
 kpt#   7, nband=  7, wtk=  0.12500, kpt=  0.3750  0.2500  0.0000 (reduced coord)
  -0.13023   -0.05071    0.03223    0.06450    0.10888    0.17762    0.20325
      occupation numbers for kpt#   7
   2.00000    2.00000    2.03488    2.14167    1.00960    0.00467    0.00253
 kpt#   8, nband=  7, wtk=  0.12500, kpt=  0.5000  0.3750  0.0000 (reduced coord)
  -0.01032   -0.00610    0.06925    0.06945    0.15865    0.16819    0.17274
      occupation numbers for kpt#   8
   2.00034    2.00060    2.13058    2.12969    0.00072    0.00160    0.00331
 Total charge density [el/Bohr^3]
      Maximum=    3.4165E-02  at reduced coord.    0.0000    0.3333    0.4000
 Next maximum=    3.4165E-02  at reduced coord.    0.6667    0.0000    0.4000
      Minimum=    2.2196E-04  at reduced coord.    0.5000    0.5000    0.6889
 Next minimum=    2.2196E-04  at reduced coord.    0.5000    0.5000    0.7111
   Integrated=    9.0000E+00

 Cartesian components of stress tensor (hartree/bohr^3)
  sigma(1 1)=  1.70726823E-04  sigma(3 2)=  0.00000000E+00
  sigma(2 2)=  1.70726823E-04  sigma(3 1)=  0.00000000E+00
  sigma(3 3)= -1.04518013E-06  sigma(2 1)=  0.00000000E+00

-Cartesian components of stress tensor (GPa)         [Pressure= -3.3384E+00 GPa]
- sigma(1 1)=  5.02295570E+00  sigma(3 2)=  0.00000000E+00
- sigma(2 2)=  5.02295571E+00  sigma(3 1)=  0.00000000E+00
- sigma(3 3)= -3.07502558E-02  sigma(2 1)=  0.00000000E+00

================================================================================
== DATASET  2 ==================================================================
-   nproc =    4


--- !COMMENT
src_file: m_xgScalapack.F90
src_line: 251
message: |
    xgScalapack in auto mode
...


 getdim_nloc : deduce lmnmax  =   9, lnmax  =   3,
                      lmnmaxso=   9, lnmaxso=   3.
 Exchange-correlation functional for the present dataset will be:
  LDA: new Teter (4/93) with spin-polarized option - ixc=1
 Citation for XC functional:
  S. Goedecker, M. Teter, J. Huetter, PRB 54, 1703 (1996)

 Unit cell volume ucvol=  6.3422875E+02 bohr^3
 Angles (23,13,12)=  9.00000000E+01  9.00000000E+01  9.00000000E+01 degrees

 getcut: wavevector=  0.0000  0.0000  0.0000  ngfft=  12  12  50
         ecut(hartree)=      6.000   => boxcut(ratio)=   2.01383
 kpgio: loop on k-points done in parallel
   6.54267545E+01                                ecore*ucvol(ha*bohr**3)
 wfconv:     8 bands initialized randomly with npw=   432, for ikpt=     1
 wfconv:     8 bands initialized randomly with npw=   442, for ikpt=     2
_setup2: Arith. and geom. avg. npw (full set) are     444.250     444.191
 initro: for itypat=  1, take decay length=      1.2500,
 initro: indeed, coreel=     10.0000, nval=  3 and densty=  0.0000E+00.

================================================================================

=== [ionmov= 2] Broyden-Fletcher-Goldfard-Shanno method (forces)            
================================================================================

--- Iteration: ( 1/10) Internal Cycle: (1/1)
--------------------------------------------------------------------------------

 Cartesian coordinates (xcart) [bohr]
  0.00000000000000E+00  0.00000000000000E+00  0.00000000000000E+00
  0.00000000000000E+00  3.75279540000000E+00  3.75279540000000E+00
  0.00000000000000E+00  0.00000000000000E+00  7.50559090000000E+00
  0.00000000000000E+00  3.75279540000000E+00  1.12583863000000E+01
 Reduced coordinates (xred)
  0.00000000000000E+00  0.00000000000000E+00  0.00000000000000E+00
 -4.99999993338299E-01  4.99999993338299E-01  1.66666664446100E-01
  0.00000000000000E+00  0.00000000000000E+00  3.33333333333333E-01
 -4.99999993338299E-01  4.99999993338299E-01  4.99999997779433E-01

---SELF-CONSISTENT-FIELD CONVERGENCE--------------------------------------------
 For input ecut=  2.545795E+00 best grid ngfft=       8       8      36
       max ecut=  2.803173E+00

 ==== FFT mesh ====
  FFT mesh divisions ........................     8    8   36
  Augmented FFT divisions ...................     9    9   36
  FFT algorithm .............................   100
  FFT cache size ............................    16
 getmpw: optimal value of mpw= 103

 getcut: wavevector=  0.0000  0.0000  0.0000  ngfft=  12  12  50
         ecut(hartree)=      6.000   => boxcut(ratio)=   2.01383

 ITER STEP NUMBER     1
 vtorho : nnsclo_now=2, note that nnsclo,dbl_nnsclo,istep=0 0 1
 newocc: new Fermi energy is       0.128597 , with nelect=     12.000000
  Number of bissection calls =  48
 newocc : computed new occ. numbers for occopt= 4 , spin-unpolarized case.
 2.000 2.000 2.000 2.000 2.131 0.005 0.001 0.000
 2.000 2.000 2.000 2.000 2.004 2.124 1.532 0.129
 2.000 2.000 2.000 2.006 2.102 1.502 0.292 0.001
 2.000 2.000 2.000 2.000 2.008 2.009 0.132 0.088
 2.000 2.000 2.000 2.000 2.094 1.613 0.169 0.004
 2.000 2.000 2.000 2.006 2.105 1.498 0.308 0.001
 2.000 2.000 2.000 2.000 2.094 1.617 0.174 0.004
 2.000 2.000 2.003 2.003 1.664 1.655 0.466 0.455
mkrho: echo density (plane-wave part only)
 Total charge density [el/Bohr^3]
      Maximum=    3.5839E-02  at reduced coord.    0.8333    0.5000    0.4600
      Minimum=    2.1855E-04  at reduced coord.    0.0000    0.0000    0.7400
   Integrated=    1.2000E+01
 Total charge density [el/Bohr^3]
      Maximum=    3.5839E-02  at reduced coord.    0.8333    0.5000    0.4600
      Minimum=    2.1855E-04  at reduced coord.    0.0000    0.0000    0.7400
   Integrated=    1.2000E+01
  rhotov : is_hybrid_ncpp= F
  rhotov : n3xccc=           0
 ETOT  1  -8.2556962225054    -8.256E+00 9.940E-03 3.551E+02 7.720E-03 7.720E-03
 scprqt: <Vxc>= -2.7800009E-01 hartree

 dielmt : 15 largest eigenvalues of the hermitian RPA dielectric matrix
  1-5  : 1.34593E+01 8.14136E+00 3.47541E+00 2.81370E+00 2.12279E+00
  6-10 : 1.98758E+00 1.94766E+00 1.94584E+00 1.93351E+00 1.86084E+00
  11-15: 1.84517E+00 1.81041E+00 1.80982E+00 1.80114E+00 1.78052E+00

 dielmt : 5 smallest eigenvalues of the hermitian RPA dielectric matrix
  1-5  : 1.00000E+00 1.01053E+00 1.01077E+00 1.01077E+00 1.01084E+00

Simple mixing update:
  residual square of the potential :   11.094108038279504
 scfcv_core: previous iteration took 00 [s]

 ITER STEP NUMBER     2
 vtorho : nnsclo_now=2, note that nnsclo,dbl_nnsclo,istep=0 0 2
 newocc: new Fermi energy is       0.150873 , with nelect=     12.000000
  Number of bissection calls =  48
 newocc : computed new occ. numbers for occopt= 4 , spin-unpolarized case.
 2.000 2.000 2.000 2.000 2.067 0.005 0.001 0.000
 2.000 2.000 2.000 2.000 2.013 2.082 1.372 0.515
 2.000 2.000 2.000 2.002 1.985 1.736 0.101 0.001
 2.000 2.000 2.000 2.000 2.010 2.010 0.352 0.352
 2.000 2.000 2.000 2.005 2.135 1.898 0.117 0.000
 2.000 2.000 2.000 2.002 1.985 1.736 0.101 0.001
 2.000 2.000 2.000 2.005 2.135 1.898 0.117 0.000
 2.000 2.000 2.010 2.010 1.545 1.543 0.075 0.075
mkrho: echo density (plane-wave part only)
 Total charge density [el/Bohr^3]
      Maximum=    3.4914E-02  at reduced coord.    0.0000    0.3333    0.0200
      Minimum=    5.0888E-04  at reduced coord.    0.0000    0.0000    0.7400
   Integrated=    1.2000E+01
 Total charge density [el/Bohr^3]
      Maximum=    3.4914E-02  at reduced coord.    0.0000    0.3333    0.0200
      Minimum=    5.0888E-04  at reduced coord.    0.0000    0.0000    0.7400
   Integrated=    1.2000E+01
  rhotov : is_hybrid_ncpp= F
  rhotov : n3xccc=           0
 ETOT  2  -8.3494661576406    -9.377E-02 1.310E-04 1.948E+01 1.440E-02 6.680E-03
 scprqt: <Vxc>= -2.8486752E-01 hartree

 Pulay update with  1 previous iterations:
 mixing of old trial potential : alpha(m:m-4)=  0.808      0.192
 scfcv_core: previous iteration took 00 [s]

 ITER STEP NUMBER     3
 vtorho : nnsclo_now=1, note that nnsclo,dbl_nnsclo,istep=0 0 3
 newocc: new Fermi energy is       0.140426 , with nelect=     12.000000
  Number of bissection calls =  47
 newocc : computed new occ. numbers for occopt= 4 , spin-unpolarized case.
 2.000 2.000 2.000 2.000 2.079 0.005 0.002 0.000
 2.000 2.000 2.000 2.000 2.012 2.087 1.374 0.431
 2.000 2.000 2.000 2.003 1.924 1.842 0.111 0.001
 2.000 2.000 2.000 2.000 2.010 2.010 0.325 0.325
 2.000 2.000 2.000 2.003 2.133 1.870 0.117 0.000
 2.000 2.000 2.000 2.003 1.924 1.842 0.111 0.001
 2.000 2.000 2.000 2.003 2.133 1.870 0.117 0.000
 2.000 2.000 2.010 2.010 1.541 1.540 0.117 0.116
mkrho: echo density (plane-wave part only)
 Total charge density [el/Bohr^3]
      Maximum=    3.4675E-02  at reduced coord.    0.0000    0.3333    0.0200
      Minimum=    4.2145E-04  at reduced coord.    0.0000    0.0000    0.7400
   Integrated=    1.2000E+01
 Total charge density [el/Bohr^3]
      Maximum=    3.4675E-02  at reduced coord.    0.0000    0.3333    0.0200
      Minimum=    4.2145E-04  at reduced coord.    0.0000    0.0000    0.7400
   Integrated=    1.2000E+01
  rhotov : is_hybrid_ncpp= F
  rhotov : n3xccc=           0
 ETOT  3  -8.3546543059369    -5.188E-03 4.218E-05 7.119E-02 1.432E-03 6.193E-03
 scprqt: <Vxc>= -2.8352402E-01 hartree

 Pulay update with  2 previous iterations:
 mixing of old trial potential : alpha(m:m-4)=   1.12     -0.871E-01 -0.336E-01
 scfcv_core: previous iteration took 00 [s]

 ITER STEP NUMBER     4
 vtorho : nnsclo_now=1, note that nnsclo,dbl_nnsclo,istep=0 0 4
 newocc: new Fermi energy is       0.141858 , with nelect=     12.000000
  Number of bissection calls =  48
 newocc : computed new occ. numbers for occopt= 4 , spin-unpolarized case.
 2.000 2.000 2.000 2.000 2.078 0.005 0.002 0.000
 2.000 2.000 2.000 2.000 2.012 2.086 1.362 0.443
 2.000 2.000 2.000 2.003 1.933 1.836 0.107 0.001
 2.000 2.000 2.000 2.000 2.011 2.011 0.333 0.333
 2.000 2.000 2.000 2.003 2.133 1.878 0.114 0.000
 2.000 2.000 2.000 2.003 1.933 1.836 0.107 0.001
 2.000 2.000 2.000 2.003 2.133 1.878 0.114 0.000
 2.000 2.000 2.010 2.010 1.532 1.532 0.113 0.113
mkrho: echo density (plane-wave part only)
 Total charge density [el/Bohr^3]
      Maximum=    3.4579E-02  at reduced coord.    0.5000    0.8333    0.4800
      Minimum=    4.2379E-04  at reduced coord.    0.0000    0.0000    0.7400
   Integrated=    1.2000E+01
 Total charge density [el/Bohr^3]
      Maximum=    3.4579E-02  at reduced coord.    0.5000    0.8333    0.4800
      Minimum=    4.2379E-04  at reduced coord.    0.0000    0.0000    0.7400
   Integrated=    1.2000E+01
  rhotov : is_hybrid_ncpp= F
  rhotov : n3xccc=           0
 ETOT  4  -8.3546862293901    -3.192E-05 1.606E-06 3.774E-03 1.603E-04 6.250E-03
 scprqt: <Vxc>= -2.8361259E-01 hartree

 Pulay update with  3 previous iterations:
 mixing of old trial potential : alpha(m:m-4)=   1.12     -0.110     -0.151E-01  0.257E-02
 scfcv_core: previous iteration took 00 [s]

 ITER STEP NUMBER     5
 vtorho : nnsclo_now=1, note that nnsclo,dbl_nnsclo,istep=0 0 5
[...]
   0.16818    0.18520    0.25988
      occupation numbers for kpt#   2
   2.00000    2.00000    2.00000    2.00000    2.00001    2.00138    2.08350    2.12829
   0.82590    0.25408    0.00227
 kpt#   3, nband= 11, wtk=  0.12500, kpt= -0.2500  0.1250  0.0000 (reduced coord)
  -0.18478   -0.15194   -0.09687   -0.02545    0.06225    0.13485    0.14271    0.17377
   0.22421    0.23575    0.29434
      occupation numbers for kpt#   3
   2.00000    2.00000    2.00000    2.00000    2.00316    2.02091    1.84129    0.60272
   0.00198    0.00512    0.00006
 kpt#   4, nband= 11, wtk=  0.12500, kpt=  0.5000  0.1250  0.0000 (reduced coord)
  -0.05961   -0.05818   -0.02942   -0.02392    0.02635    0.02837    0.09279    0.10200
   0.17325    0.19796    0.24184
      occupation numbers for kpt#   4
   2.00000    2.00000    2.00000    2.00000    2.00002    2.00003    2.05184    2.08877
   0.62236    0.05789    0.00514
 kpt#   5, nband= 11, wtk=  0.12500, kpt= -0.3750  0.2500  0.0000 (reduced coord)
  -0.10054   -0.06817   -0.01382    0.05653    0.06226    0.09389    0.14084    0.14956
   0.20749    0.22220    0.23368
      occupation numbers for kpt#   5
   2.00000    2.00000    2.00000    2.00160    2.00316    2.05576    1.89208    1.61521
   0.00898    0.00122    0.00485
 kpt#   6, nband= 11, wtk=  0.12500, kpt=  0.2500  0.1250  0.0000 (reduced coord)
  -0.18478   -0.15194   -0.09687   -0.02545    0.06225    0.13485    0.14271    0.17377
   0.22421    0.23575    0.29434
      occupation numbers for kpt#   6
   2.00000    2.00000    2.00000    2.00000    2.00316    2.02091    1.84129    0.60272
   0.00198    0.00512    0.00006
 kpt#   7, nband= 11, wtk=  0.12500, kpt=  0.3750  0.2500  0.0000 (reduced coord)
  -0.10054   -0.06817   -0.01382    0.05653    0.06226    0.09389    0.14084    0.14956
   0.20749    0.22220    0.23368
      occupation numbers for kpt#   7
   2.00000    2.00000    2.00000    2.00160    2.00316    2.05576    1.89208    1.61521
   0.00898    0.00122    0.00485
 kpt#   8, nband= 11, wtk=  0.12500, kpt=  0.5000  0.3750  0.0000 (reduced coord)
   0.02111    0.02239    0.05071    0.05579    0.10437    0.10835    0.17158    0.17836
   0.19170    0.19444    0.22023
      occupation numbers for kpt#   8
   2.00001    2.00001    2.00076    2.00146    2.09916    2.11609    0.68700    0.44300
   0.13077    0.09388    0.00057
 Total charge density [el/Bohr^3]
      Maximum=    3.4089E-02  at reduced coord.    0.0000    0.3333    0.5667
 Next maximum=    3.4089E-02  at reduced coord.    0.6667    0.0000    0.5667
      Minimum=    2.7640E-04  at reduced coord.    0.5000    0.5000    0.7833
 Next minimum=    2.8357E-04  at reduced coord.    0.5000    0.4167    0.7833
   Integrated=    1.5000E+01

 Cartesian components of stress tensor (hartree/bohr^3)
  sigma(1 1)=  1.46084782E-04  sigma(3 2)=  0.00000000E+00
  sigma(2 2)=  1.46084782E-04  sigma(3 1)=  0.00000000E+00
  sigma(3 3)=  1.73980994E-05  sigma(2 1)=  0.00000000E+00

-Cartesian components of stress tensor (GPa)         [Pressure= -3.0359E+00 GPa]
- sigma(1 1)=  4.29796196E+00  sigma(3 2)=  0.00000000E+00
- sigma(2 2)=  4.29796196E+00  sigma(3 1)=  0.00000000E+00
- sigma(3 3)=  5.11869670E-01  sigma(2 1)=  0.00000000E+00

== END DATASET(S) ==============================================================
================================================================================
  
 -outvars: echo values of variables after computation  --------
 
 These variables are accessible in NetCDF format (tbase4_7o_OUT.nc)

            acell      7.5055909000E+00  7.5055909000E+00  7.5055909000E+00 Bohr
              amu      2.69815390E+01
             ecut      6.00000000E+00 Hartree
           etotal1    -6.2546989923E+00
           etotal2    -8.3565588250E+00
           etotal3    -1.0454162612E+01
            fcart1    -0.0000000000E+00  6.0285266031E-10 -2.0683761800E-04
                      -0.0000000000E+00 -1.2057053206E-09 -0.0000000000E+00
                      -0.0000000000E+00  6.0285266031E-10  2.0683761800E-04
            fcart2    -2.0679515314E-25 -1.2655304065E-09  1.3674551925E-04
                      -2.0679515314E-25  4.8862345405E-09 -7.9541855715E-05
                       6.2038545941E-25 -4.8862345405E-09  7.9541855715E-05
                      -2.0679515314E-25  1.2655304065E-09 -1.3674551925E-04
            fcart3    -0.0000000000E+00 -2.9384252617E-10  2.0397150506E-04
                      -2.5849394142E-26  3.9438034254E-10 -1.2980262328E-04
                      -0.0000000000E+00 -2.0107563274E-10 -0.0000000000E+00
                       2.5849394142E-26  3.9438034254E-10  1.2980262328E-04
                      -0.0000000000E+00 -2.9384252617E-10 -2.0397150506E-04
-          fftalg         312
           ionmov           2
           iprcel          45
           jdtset        1    2    3
              kpt     -1.25000000E-01  0.00000000E+00  0.00000000E+00
                      -3.75000000E-01  0.00000000E+00  0.00000000E+00
                      -2.50000000E-01  1.25000000E-01  0.00000000E+00
                       5.00000000E-01  1.25000000E-01  0.00000000E+00
                      -3.75000000E-01  2.50000000E-01  0.00000000E+00
                       2.50000000E-01  1.25000000E-01  0.00000000E+00
                       3.75000000E-01  2.50000000E-01  0.00000000E+00
                       5.00000000E-01  3.75000000E-01  0.00000000E+00
         kptrlatt        4    4    0     -4    4    0      0    0    1
          kptrlen      3.00223636E+01
P           mkmem           2
            natom1          3
            natom2          4
            natom3          5
            nband1          7
            nband2          8
            nband3         11
           ndtset           3
            ngfft1         12      12      45
            ngfft2         12      12      50
            ngfft3         12      12      60
             nkpt           8
            nstep          10
             nsym           4
            ntime          10
           ntypat           1
              occ1     2.000000  2.000000  2.000000  2.133185  0.002911  0.000194
                       0.000000
                       2.000000  2.000000  2.000574  2.017131  2.122032  0.101385
                       0.005174
                       2.000000  2.000000  2.000123  1.490520  0.863088  0.004847
                       0.001182
                       2.000000  2.000000  2.000296  2.000468  1.674766  0.565872
                       0.002935
                       2.000000  2.000000  2.034879  2.141674  1.009604  0.004667
                       0.002528
                       2.000000  2.000000  2.000123  1.490520  0.863088  0.004847
                       0.001182
                       2.000000  2.000000  2.034879  2.141674  1.009604  0.004667
                       0.002528
                       2.000340  2.000604  2.130585  2.129691  0.000717  0.001598
                       0.003314
              occ2     2.000000  2.000000  2.000000  2.000001  2.041038  0.004533
                       0.000568  0.000260
                       2.000000  2.000000  2.000000  2.000129  2.025460  2.052214
                       1.345554  0.784920
                       2.000000  2.000000  2.000000  2.000922  2.092807  1.303630
                       0.030862  0.001512
                       2.000000  2.000000  2.000000  2.000000  2.011264  2.011264
                       0.606577  0.606577
                       2.000000  2.000000  2.000067  2.014415  2.139006  2.044547
                       0.103947  0.005687
                       2.000000  2.000000  2.000000  2.000922  2.092807  1.303630
                       0.030862  0.001512
                       2.000000  2.000000  2.000067  2.014415  2.139006  2.044547
                       0.103947  0.005687
                       2.000100  2.000100  2.021828  2.021828  1.486873  1.486873
                       0.008618  0.008618
              occ3     2.000000  2.000000  2.000000  2.000000  2.000009  2.060734
                       0.126709  0.002070  0.000124  0.000000  0.000000
                       2.000000  2.000000  2.000000  2.000003  2.000013  2.001383
                       2.083503  2.128292  0.825903  0.254079  0.002268
                       2.000000  2.000000  2.000000  2.000000  2.003156  2.020909
                       1.841288  0.602721  0.001977  0.005120  0.000064
                       2.000000  2.000000  2.000000  2.000000  2.000021  2.000029
                       2.051839  2.088768  0.622355  0.057886  0.005141
                       2.000000  2.000000  2.000000  2.001600  2.003160  2.055757
                       1.892076  1.615208  0.008976  0.001216  0.004852
                       2.000000  2.000000  2.000000  2.000000  2.003156  2.020909
                       1.841288  0.602721  0.001977  0.005120  0.000064
                       2.000000  2.000000  2.000000  2.001600  2.003160  2.055757
                       1.892076  1.615208  0.008976  0.001216  0.004852
                       2.000009  2.000011  2.000764  2.001459  2.099157  2.116093
                       0.686996  0.443003  0.130770  0.093885  0.000565
           occopt           4
        optforces           1
            rprim1     5.0000000000E-01 -5.0000000000E-01  0.0000000000E+00
                       5.0000000000E-01  5.0000000000E-01  0.0000000000E+00
                       0.0000000000E+00  0.0000000000E+00  2.5000000000E+00
            rprim2     5.0000000000E-01 -5.0000000000E-01  0.0000000000E+00
                       5.0000000000E-01  5.0000000000E-01  0.0000000000E+00
                       0.0000000000E+00  0.0000000000E+00  3.0000000000E+00
            rprim3     5.0000000000E-01 -5.0000000000E-01  0.0000000000E+00
                       5.0000000000E-01  5.0000000000E-01  0.0000000000E+00
                       0.0000000000E+00  0.0000000000E+00  3.5000000000E+00
           shiftk      5.00000000E-01  5.00000000E-01  0.00000000E+00
          spgroup1         38
          spgroup2         12
          spgroup3         38
           strten1     1.7072682290E-04  1.7072682307E-04 -1.0451801261E-06
                       0.0000000000E+00  0.0000000000E+00  0.0000000000E+00
           strten2     1.8838479459E-04  1.8838479459E-04  6.4042726673E-05
                       8.0061196523E-12  0.0000000000E+00  0.0000000000E+00
           strten3     1.4608478233E-04  1.4608478230E-04  1.7398099375E-05
                       0.0000000000E+00  0.0000000000E+00  0.0000000000E+00
           symrel1     1  0  0   0  1  0   0  0  1       1  0  0   0  1  0   0  0 -1
                       0 -1  0  -1  0  0   0  0 -1       0 -1  0  -1  0  0   0  0  1
           symrel2     1  0  0   0  1  0   0  0  1      -1  0  0   0 -1  0   0  0 -1
                       0 -1  0  -1  0  0   0  0  1       0  1  0   1  0  0   0  0 -1
           symrel3     1  0  0   0  1  0   0  0  1       1  0  0   0  1  0   0  0 -1
                       0 -1  0  -1  0  0   0  0 -1       0 -1  0  -1  0  0   0  0  1
            tnons1     0.0000000  0.0000000  0.0000000     0.0000000  0.0000000  0.4000000
                       0.0000000  0.0000000  0.4000000     0.0000000  0.0000000  0.0000000
            tnons2     0.0000000  0.0000000  0.0000000     0.5000000  0.5000000  0.5000000
                       0.0000000  0.0000000  0.0000000     0.5000000  0.5000000  0.5000000
            tnons3     0.0000000  0.0000000  0.0000000     0.0000000  0.0000000 -0.4285714
                       0.0000000  0.0000000 -0.4285714     0.0000000  0.0000000  0.0000000
           toldff      5.00000000E-05
           tolmxf      5.00000000E-04
           tsmear      4.00000000E-02 Hartree
            typat1     1  1  1
            typat2     1  1  1  1
            typat3     1  1  1  1  1
              wtk        0.12500    0.12500    0.12500    0.12500    0.12500    0.12500
                         0.12500    0.12500
           xangst1     0.0000000000E+00 -2.1427692408E-08 -8.8785905993E-02
                       0.0000000000E+00  1.9858938370E+00  1.9858938206E+00
                       0.0000000000E+00 -2.1427692408E-08  4.0605735473E+00
           xangst2     0.0000000000E+00 -1.8883766874E-07 -1.7582815051E-01
                       0.0000000000E+00  1.9858935848E+00  1.9182559504E+00
                       0.0000000000E+00  2.0941468137E-07  4.0394254851E+00
                       0.0000000000E+00  1.9858939830E+00  6.1335095860E+00
           xangst3     8.7545025510E-25 -1.5434003210E-09 -1.0346854017E-01
                       0.0000000000E+00  1.9858938023E+00  1.9260094208E+00
                       0.0000000000E+00 -1.3198730976E-08  3.9717876413E+00
                       0.0000000000E+00  1.9858938023E+00  6.0175658617E+00
                      -2.0791943559E-24 -1.5434003210E-09  8.0470438227E+00
            xcart1     0.0000000000E+00 -4.0492470312E-08 -1.6778104679E-01
                       0.0000000000E+00  3.7527954810E+00  3.7527954500E+00
                       0.0000000000E+00 -4.0492470312E-08  7.6733719468E+00
            xcart2     0.0000000000E+00 -3.5685147749E-07 -3.3226705091E-01
                       0.0000000000E+00  3.7527950043E+00  3.6249783991E+00
                       0.0000000000E+00  3.9573639600E-07  7.6334079009E+00
                       0.0000000000E+00  3.7527957569E+00  1.1590653351E+01
            xcart3     1.6543612251E-24 -2.9166039201E-09 -1.9552720429E-01
                       0.0000000000E+00  3.7527954154E+00  3.6396303348E+00
                       0.0000000000E+00 -2.4941986847E-08  7.5055909000E+00
                       0.0000000000E+00  3.7527954154E+00  1.1371551465E+01
                      -3.9291079096E-24 -2.9166039201E-09  1.5206709004E+01
             xred1     5.3949743400E-09 -5.3949743400E-09 -8.9416569074E-03
                      -5.0000000413E-01  5.0000000413E-01  2.0000000000E-01
                       5.3949743400E-09 -5.3949743400E-09  4.0894165691E-01
             xred2     4.7544754603E-08 -4.7544754603E-08 -1.4756424259E-02
                      -4.9999994061E-01  4.9999994061E-01  1.6099014043E-01
                      -5.2725548364E-08  5.2725548364E-08  3.3900985735E-01
                      -5.0000004088E-01  5.0000004088E-01  5.1475642204E-01
             xred3     3.8859084634E-10 -3.8859084634E-10 -7.4431069125E-03
                      -4.9999999539E-01  4.9999999539E-01  1.3854930214E-01
                       3.3231210146E-09 -3.3231210146E-09  2.8571428571E-01
                      -4.9999999539E-01  4.9999999539E-01  4.3287926929E-01
                       3.8859084634E-10 -3.8859084634E-10  5.7887167834E-01
            znucl       13.00000

================================================================================
  

================================================================================

 Suggested references for the acknowledgment of ABINIT usage.

 The users of ABINIT have little formal obligations with respect to the ABINIT group
 (those specified in the GNU General Public License, http://www.gnu.org/copyleft/gpl.txt).
 However, it is common practice in the scientific literature,
 to acknowledge the efforts of people that have made the research possible.
 In this spirit, please find below suggested citations of work written by ABINIT developers,
 corresponding to implementations inside of ABINIT that you have used in the present run.
 Note also that it will be of great value to readers of publications presenting these results,
 to read papers enabling them to understand the theoretical formalism and details
 of the ABINIT implementation.
 For information on why they are suggested, see also https://docs.abinit.org/theory/acknowledgments.
-
- [1] Preconditioning of self-consistent-field cycles in density functional theory : the extrapolar method
- P.-M. Anglade, X. Gonze, Phys. Rev. B 78, 045126 (2008).
- Comment : to be cited in case the extrapolar conditioner is used, i.e. non-vanishing iprcel.
- DOI and bibtex : see https://docs.abinit.org/theory/bibliography/#anglade2008
-
- [2] Recent developments in the ABINIT software package.
- Computer Phys. Comm. 205, 106 (2016).
- X.Gonze, F.Jollet, F.Abreu Araujo, D.Adams, B.Amadon, T.Applencourt,
- C.Audouze, J.-M.Beuken, J.Bieder, A.Bokhanchuk, E.Bousquet, F.Bruneval
- D.Caliste, M.Cote, F.Dahm, F.Da Pieve, M.Delaveau, M.Di Gennaro,
- B.Dorado, C.Espejo, G.Geneste, L.Genovese, A.Gerossier, M.Giantomassi,
- Y.Gillet, D.R.Hamann, L.He, G.Jomard, J.Laflamme Janssen, S.Le Roux,
- A.Levitt, A.Lherbier, F.Liu, I.Lukacevic, A.Martin, C.Martins,
- M.J.T.Oliveira, S.Ponce, Y.Pouillon, T.Rangel, G.-M.Rignanese,
- A.H.Romero, B.Rousseau, O.Rubel, A.A.Shukri, M.Stankovski, M.Torrent,
- M.J.Van Setten, B.Van Troeye, M.J.Verstraete, D.Waroquier, J.Wiktor,
- B.Xu, A.Zhou, J.W.Zwanziger.
- Comment : the fourth generic paper describing the ABINIT project.
- Note that a version of this paper, that is not formatted for Computer Phys. Comm. 
- is available at https://www.abinit.org/about/ABINIT16.pdf .
- The licence allows the authors to put it on the Web.
- DOI and bibtex : see https://docs.abinit.org/theory/bibliography/#gonze2016
-
- [3] Ab initio pseudopotentials for electronic structure calculations of poly-atomic systems, 
- using density-functional theory.
- M. Fuchs, M. Scheffler, Comput. Phys. Commun. 119, 67 (1999).
- Comment : Some pseudopotential generated using the FHI code were used.
- DOI and bibtex : see https://docs.abinit.org/theory/bibliography/#fuchs1999
-
- [4] ABINIT : First-principles approach of materials and nanosystem properties.
- Computer Phys. Comm. 180, 2582-2615 (2009).
- X. Gonze, B. Amadon, P.-M. Anglade, J.-M. Beuken, F. Bottin, P. Boulanger, F. Bruneval,
- D. Caliste, R. Caracas, M. Cote, T. Deutsch, L. Genovese, Ph. Ghosez, M. Giantomassi
- S. Goedecker, D.R. Hamann, P. Hermet, F. Jollet, G. Jomard, S. Leroux, M. Mancini, S. Mazevet,
- M.J.T. Oliveira, G. Onida, Y. Pouillon, T. Rangel, G.-M. Rignanese, D. Sangalli, R. Shaltaf,
- M. Torrent, M.J. Verstraete, G. Zerah, J.W. Zwanziger
- Comment : the third generic paper describing the ABINIT project.
- Note that a version of this paper, that is not formatted for Computer Phys. Comm. 
- is available at https://www.abinit.org/about/ABINIT_CPC_v10.pdf .
- The licence allows the authors to put it on the Web.
- DOI and bibtex : see https://docs.abinit.org/theory/bibliography/#gonze2009
-
- [5] A brief introduction to the ABINIT software package.
- Z. Kristallogr. 220, 558-562 (2005).
- X. Gonze, G.-M. Rignanese, M. Verstraete, J.-M. Beuken, Y. Pouillon, R. Caracas, F. Jollet,
- M. Torrent, G. Zerah, M. Mikami, Ph. Ghosez, M. Veithen, J.-Y. Raty, V. Olevano, F. Bruneval,
- L. Reining, R. Godby, G. Onida, D.R. Hamann, and D.C. Allan.
- Comment : the second generic paper describing the ABINIT project. Note that this paper
- should be cited especially if you are using the GW part of ABINIT, as several authors
- of this part are not in the list of authors of the first or third paper.
- The .pdf of the latter paper is available at https://www.abinit.org/about/zfk_0505-06_558-562.pdf.
- Note that it should not redistributed (Copyright by Oldenburg Wissenshaftverlag,
- the licence allows the authors to put it on the Web).
- DOI and bibtex : see https://docs.abinit.org/theory/bibliography/#gonze2005
  Asked to delete not existent file: tbase4_7_STATUS
 Proc.   0 individual time (sec): cpu=         23.2  wall=         23.5

 Calculation completed.
.Delivered   4 WARNINGs and   0 COMMENTs to log file.

--- !FinalSummary
program: abinit
version: 8.10.3
start_datetime: Thu Oct 24 16:58:42 2019
end_datetime: Thu Oct 24 16:59:05 2019
overall_cpu_time:          93.7
overall_wall_time:          94.0
exit_requested_by_user: no 
timelimit: 0
pseudos: 
    Al  : 45177dc68580e70ffd690f1e65e9b174
usepaw: 0
mpi_procs: 4
omp_threads: 1
num_warnings: 4
num_comments: 0
...
