
.Version 8.10.3 of ABINIT 
.(MPI version, prepared for a x86_64_linux_gnu5.4 computer) 

.Copyright (C) 1998-2018 ABINIT group . 
 ABINIT comes with ABSOLUTELY NO WARRANTY.
 It is free software, and you are welcome to redistribute it
 under certain conditions (GNU General Public License,
 see ~abinit/COPYING or http://www.gnu.org/copyleft/gpl.txt).

 ABINIT is a project of the Universite Catholique de Louvain,
 Corning Inc. and other collaborators, see ~abinit/doc/developers/contributors.txt .
 Please read https://docs.abinit.org/theory/acknowledgments for suggested
 acknowledgments of the ABINIT effort.
 For more information, see https://www.abinit.org .

.Starting date : Thu 24 Oct 2019.
- ( at 16h58 )
  
- input  file    -> tbase4_7.in
- output file    -> tbase4_7.out
- root for input  files -> tbase4_7i
- root for output files -> tbase4_7o


 DATASET    1 : space group Am m 2 (# 38); Bravais oC (1-face-center ortho.)
================================================================================
 Values of the parameters that define the memory need for DATASET  1.
     intxc =       0    ionmov =       2      iscf =       7    lmnmax =       3
     lnmax =       3     mgfft =      45  mpssoang =       3    mqgrid =    3001
     natom =       3  nloc_mem =       1    nspden =       1   nspinor =       1
    nsppol =       1      nsym =       4    n1xccc =       0    ntypat =       1
    occopt =       4   xclevel =       1
-    mband =           7        mffmem =           1         mkmem =           2
       mpw =         378          nfft =        6480          nkpt =           8
 For the susceptibility and dielectric matrices, or tddft :
   mgfft =        30  nbnd_in_blk=     4    nfft =      1920     npw =        85
================================================================================
P This job should need less than                       3.427 Mbytes of memory.
  Rough estimation (10% accuracy) of disk space for files :
_ WF disk file :      0.325 Mbytes ; DEN or POT disk file :      0.051 Mbytes.
================================================================================


 DATASET    2 : space group C2/m (# 12); Bravais mC (1-face-center monocl.)
================================================================================
 Values of the parameters that define the memory need for DATASET  2.
     intxc =       0    ionmov =       2      iscf =       7    lmnmax =       3
     lnmax =       3     mgfft =      50  mpssoang =       3    mqgrid =    3001
     natom =       4  nloc_mem =       1    nspden =       1   nspinor =       1
    nsppol =       1      nsym =       4    n1xccc =       0    ntypat =       1
    occopt =       4   xclevel =       1
-    mband =           8        mffmem =           1         mkmem =           2
       mpw =         452          nfft =        7200          nkpt =           8
 For the susceptibility and dielectric matrices, or tddft :
   mgfft =        36  nbnd_in_blk=     4    nfft =      2304     npw =       103
================================================================================
P This job should need less than                       3.801 Mbytes of memory.
  Rough estimation (10% accuracy) of disk space for files :
_ WF disk file :      0.443 Mbytes ; DEN or POT disk file :      0.057 Mbytes.
================================================================================


 DATASET    3 : space group Am m 2 (# 38); Bravais oC (1-face-center ortho.)
================================================================================
 Values of the parameters that define the memory need for DATASET  3.
     intxc =       0    ionmov =       2      iscf =       7    lmnmax =       3
     lnmax =       3     mgfft =      60  mpssoang =       3    mqgrid =    3001
     natom =       5  nloc_mem =       1    nspden =       1   nspinor =       1
    nsppol =       1      nsym =       4    n1xccc =       0    ntypat =       1
    occopt =       4   xclevel =       1
-    mband =          11        mffmem =           1         mkmem =           2
       mpw =         532          nfft =        8640          nkpt =           8
 For the susceptibility and dielectric matrices, or tddft :
   mgfft =        40  nbnd_in_blk=     6    nfft =      2560     npw =       121
================================================================================
P This job should need less than                       4.438 Mbytes of memory.
  Rough estimation (10% accuracy) of disk space for files :
_ WF disk file :      0.716 Mbytes ; DEN or POT disk file :      0.068 Mbytes.
================================================================================

--------------------------------------------------------------------------------
------------- Echo of variables that govern the present computation ------------
--------------------------------------------------------------------------------
-
- outvars: echo of selected default values                                      
-   iomode0 =  0 , fftalg0 =312 , wfoptalg0 =  0
-
- outvars: echo of global parameters not present in the input file              
-  max_nthreads =    1
-
 -outvars: echo values of preprocessed input variables --------
            acell      7.5055909000E+00  7.5055909000E+00  7.5055909000E+00 Bohr
              amu      2.69815390E+01
             ecut      6.00000000E+00 Hartree
-          fftalg         312
           ionmov           2
           iprcel          45
           jdtset        1    2    3
              kpt     -1.25000000E-01  0.00000000E+00  0.00000000E+00
                      -3.75000000E-01  0.00000000E+00  0.00000000E+00
                      -2.50000000E-01  1.25000000E-01  0.00000000E+00
                       5.00000000E-01  1.25000000E-01  0.00000000E+00
                      -3.75000000E-01  2.50000000E-01  0.00000000E+00
                       2.50000000E-01  1.25000000E-01  0.00000000E+00
                       3.75000000E-01  2.50000000E-01  0.00000000E+00
                       5.00000000E-01  3.75000000E-01  0.00000000E+00
         kptrlatt        4    4    0     -4    4    0      0    0    1
          kptrlen      3.00223636E+01
P           mkmem           2
            natom1          3
            natom2          4
            natom3          5
            nband1          7
            nband2          8
            nband3         11
           ndtset           3
            ngfft1         12      12      45
            ngfft2         12      12      50
            ngfft3         12      12      60
             nkpt           8
            nstep          10
             nsym           4
            ntime          10
           ntypat           1
              occ1     2.000000  2.000000  2.000000  2.000000  1.000000  0.000000
                       0.000000
                       2.000000  2.000000  2.000000  2.000000  1.000000  0.000000
                       0.000000
                       2.000000  2.000000  2.000000  2.000000  1.000000  0.000000
                       0.000000
                       2.000000  2.000000  2.000000  2.000000  1.000000  0.000000
                       0.000000
                       2.000000  2.000000  2.000000  2.000000  1.000000  0.000000
                       0.000000
                       2.000000  2.000000  2.000000  2.000000  1.000000  0.000000
                       0.000000
                       2.000000  2.000000  2.000000  2.000000  1.000000  0.000000
                       0.000000
                       2.000000  2.000000  2.000000  2.000000  1.000000  0.000000
                       0.000000
              occ2     2.000000  2.000000  2.000000  2.000000  2.000000  2.000000
                       0.000000  0.000000
                       2.000000  2.000000  2.000000  2.000000  2.000000  2.000000
                       0.000000  0.000000
                       2.000000  2.000000  2.000000  2.000000  2.000000  2.000000
                       0.000000  0.000000
                       2.000000  2.000000  2.000000  2.000000  2.000000  2.000000
                       0.000000  0.000000
                       2.000000  2.000000  2.000000  2.000000  2.000000  2.000000
                       0.000000  0.000000
                       2.000000  2.000000  2.000000  2.000000  2.000000  2.000000
                       0.000000  0.000000
                       2.000000  2.000000  2.000000  2.000000  2.000000  2.000000
                       0.000000  0.000000
                       2.000000  2.000000  2.000000  2.000000  2.000000  2.000000
                       0.000000  0.000000
              occ3     2.000000  2.000000  2.000000  2.000000  2.000000  2.000000
                       2.000000  1.000000  0.000000  0.000000  0.000000
                       2.000000  2.000000  2.000000  2.000000  2.000000  2.000000
                       2.000000  1.000000  0.000000  0.000000  0.000000
                       2.000000  2.000000  2.000000  2.000000  2.000000  2.000000
                       2.000000  1.000000  0.000000  0.000000  0.000000
                       2.000000  2.000000  2.000000  2.000000  2.000000  2.000000
                       2.000000  1.000000  0.000000  0.000000  0.000000
                       2.000000  2.000000  2.000000  2.000000  2.000000  2.000000
                       2.000000  1.000000  0.000000  0.000000  0.000000
                       2.000000  2.000000  2.000000  2.000000  2.000000  2.000000
                       2.000000  1.000000  0.000000  0.000000  0.000000
                       2.000000  2.000000  2.000000  2.000000  2.000000  2.000000
                       2.000000  1.000000  0.000000  0.000000  0.000000
                       2.000000  2.000000  2.000000  2.000000  2.000000  2.000000
                       2.000000  1.000000  0.000000  0.000000  0.000000
           occopt           4
        optforces           1
            rprim1     5.0000000000E-01 -5.0000000000E-01  0.0000000000E+00
                       5.0000000000E-01  5.0000000000E-01  0.0000000000E+00
                       0.0000000000E+00  0.0000000000E+00  2.5000000000E+00
            rprim2     5.0000000000E-01 -5.0000000000E-01  0.0000000000E+00
                       5.0000000000E-01  5.0000000000E-01  0.0000000000E+00
                       0.0000000000E+00  0.0000000000E+00  3.0000000000E+00
            rprim3     5.0000000000E-01 -5.0000000000E-01  0.0000000000E+00
                       5.0000000000E-01  5.0000000000E-01  0.0000000000E+00
                       0.0000000000E+00  0.0000000000E+00  3.5000000000E+00
           shiftk      5.00000000E-01  5.00000000E-01  0.00000000E+00
          spgroup1         38
          spgroup2         12
          spgroup3         38
           symrel1     1  0  0   0  1  0   0  0  1       1  0  0   0  1  0   0  0 -1
                       0 -1  0  -1  0  0   0  0 -1       0 -1  0  -1  0  0   0  0  1
           symrel2     1  0  0   0  1  0   0  0  1      -1  0  0   0 -1  0   0  0 -1
                       0 -1  0  -1  0  0   0  0  1       0  1  0   1  0  0   0  0 -1
           symrel3     1  0  0   0  1  0   0  0  1       1  0  0   0  1  0   0  0 -1
                       0 -1  0  -1  0  0   0  0 -1       0 -1  0  -1  0  0   0  0  1
            tnons1     0.0000000  0.0000000  0.0000000     0.0000000  0.0000000  0.4000000
                       0.0000000  0.0000000  0.4000000     0.0000000  0.0000000  0.0000000
            tnons2     0.0000000  0.0000000  0.0000000     0.5000000  0.5000000  0.5000000
                       0.0000000  0.0000000  0.0000000     0.5000000  0.5000000  0.5000000
            tnons3     0.0000000  0.0000000  0.0000000     0.0000000  0.0000000 -0.4285714
                       0.0000000  0.0000000 -0.4285714     0.0000000  0.0000000  0.0000000
           toldff      5.00000000E-05
           tolmxf      5.00000000E-04
           tsmear      4.00000000E-02 Hartree
            typat1     1  1  1
            typat2     1  1  1  1
            typat3     1  1  1  1  1
              wtk        0.12500    0.12500    0.12500    0.12500    0.12500    0.12500
                         0.12500    0.12500
           xangst1     0.0000000000E+00  0.0000000000E+00  0.0000000000E+00
                       0.0000000000E+00  1.9858937942E+00  1.9858937942E+00
                       0.0000000000E+00  0.0000000000E+00  3.9717876413E+00
           xangst2     0.0000000000E+00  0.0000000000E+00  0.0000000000E+00
                       0.0000000000E+00  1.9858937942E+00  1.9858937942E+00
                       0.0000000000E+00  0.0000000000E+00  3.9717876413E+00
                       0.0000000000E+00  1.9858937942E+00  5.9576814355E+00
           xangst3     0.0000000000E+00  0.0000000000E+00  0.0000000000E+00
                       0.0000000000E+00  1.9858937942E+00  1.9858937942E+00
                       0.0000000000E+00  0.0000000000E+00  3.9717876413E+00
                       0.0000000000E+00  1.9858937942E+00  5.9576814355E+00
                       0.0000000000E+00  0.0000000000E+00  7.9435752826E+00
            xcart1     0.0000000000E+00  0.0000000000E+00  0.0000000000E+00
                       0.0000000000E+00  3.7527954000E+00  3.7527954000E+00
                       0.0000000000E+00  0.0000000000E+00  7.5055909000E+00
            xcart2     0.0000000000E+00  0.0000000000E+00  0.0000000000E+00
                       0.0000000000E+00  3.7527954000E+00  3.7527954000E+00
                       0.0000000000E+00  0.0000000000E+00  7.5055909000E+00
                       0.0000000000E+00  3.7527954000E+00  1.1258386300E+01
            xcart3     0.0000000000E+00  0.0000000000E+00  0.0000000000E+00
                       0.0000000000E+00  3.7527954000E+00  3.7527954000E+00
                       0.0000000000E+00  0.0000000000E+00  7.5055909000E+00
                       0.0000000000E+00  3.7527954000E+00  1.1258386300E+01
                       0.0000000000E+00  0.0000000000E+00  1.5011181800E+01
             xred1     0.0000000000E+00  0.0000000000E+00  0.0000000000E+00
                      -4.9999999334E-01  4.9999999334E-01  1.9999999734E-01
                       0.0000000000E+00  0.0000000000E+00  4.0000000000E-01
             xred2     0.0000000000E+00  0.0000000000E+00  0.0000000000E+00
                      -4.9999999334E-01  4.9999999334E-01  1.6666666445E-01
                       0.0000000000E+00  0.0000000000E+00  3.3333333333E-01
                      -4.9999999334E-01  4.9999999334E-01  4.9999999778E-01
             xred3     0.0000000000E+00  0.0000000000E+00  0.0000000000E+00
                      -4.9999999334E-01  4.9999999334E-01  1.4285714095E-01
                       0.0000000000E+00  0.0000000000E+00  2.8571428571E-01
                      -4.9999999334E-01  4.9999999334E-01  4.2857142667E-01
                       0.0000000000E+00  0.0000000000E+00  5.7142857143E-01
            znucl       13.00000

================================================================================

 chkinp: Checking input parameters for consistency, jdtset=   1.

 chkinp: WARNING -
   Chksymbreak=1 . Found potentially symmetry-breaking value of tnons, 
   which is neither a rational fraction in 1/8th nor in 1/12th :
   for the symmetry number    2
   symrel is   1  0  0  0  1  0  0  0 -1
   tnons is     0.000000E+00    0.000000E+00    4.000000E-01
   Please, read the description of the input variable chksymbreak,
   then, if you feel confident, you might switch it to zero, or consult with the forum.

 chkinp: WARNING -
   Chksymbreak=1 . Found potentially symmetry-breaking value of tnons, 
   which is neither a rational fraction in 1/8th nor in 1/12th :
   for the symmetry number    3
   symrel is   0 -1  0 -1  0  0  0  0 -1
   tnons is     0.000000E+00    0.000000E+00    4.000000E-01
   Please, read the description of the input variable chksymbreak,
   then, if you feel confident, you might switch it to zero, or consult with the forum.

 chkinp: Checking input parameters for consistency, jdtset=   2.

 chkinp: Checking input parameters for consistency, jdtset=   3.

 chkinp: WARNING -
   Chksymbreak=1 . Found potentially symmetry-breaking value of tnons, 
   which is neither a rational fraction in 1/8th nor in 1/12th :
   for the symmetry number    2
   symrel is   1  0  0  0  1  0  0  0 -1
   tnons is     0.000000E+00    0.000000E+00   -4.285714E-01
   Please, read the description of the input variable chksymbreak,
   then, if you feel confident, you might switch it to zero, or consult with the forum.

 chkinp: WARNING -
   Chksymbreak=1 . Found potentially symmetry-breaking value of tnons, 
   which is neither a rational fraction in 1/8th nor in 1/12th :
   for the symmetry number    3
   symrel is   0 -1  0 -1  0  0  0  0 -1
   tnons is     0.000000E+00    0.000000E+00   -4.285714E-01
   Please, read the description of the input variable chksymbreak,
   then, if you feel confident, you might switch it to zero, or consult with the forum.

================================================================================
== DATASET  1 ==================================================================
-   nproc =    4

 Exchange-correlation functional for the present dataset will be:
  LDA: new Teter (4/93) with spin-polarized option - ixc=1
 Citation for XC functional:
  S. Goedecker, M. Teter, J. Huetter, PRB 54, 1703 (1996)

 Real(R)+Recip(G) space primitive vectors, cartesian coordinates (Bohr,Bohr^-1):
 R(1)=  3.7527955 -3.7527954  0.0000000  G(1)=  0.1332340 -0.1332340  0.0000000
 R(2)=  3.7527955  3.7527955  0.0000000  G(2)=  0.1332340  0.1332340  0.0000000
 R(3)=  0.0000000  0.0000000 18.7639773  G(3)=  0.0000000  0.0000000  0.0532936
 Unit cell volume ucvol=  5.2852396E+02 bohr^3
 Angles (23,13,12)=  9.00000000E+01  9.00000000E+01  9.00000000E+01 degrees

 getcut: wavevector=  0.0000  0.0000  0.0000  ngfft=  12  12  45
         ecut(hartree)=      6.000   => boxcut(ratio)=   2.05055

--- Pseudopotential description ------------------------------------------------
- pspini: atom type   1  psp file is ../../../../../Psps_for_tests/13al.981214.fhi
- pspatm: opening atomic psp file    ../../../../../Psps_for_tests/13al.981214.fhi
- Aluminum, fhi98PP : Hamann-type, LDA CA PerdewWang, l=2 local
- 13.00000   3.00000    981214                znucl, zion, pspdat
    6    7    2    2       493   0.00000      pspcod,pspxc,lmax,lloc,mmax,r2well
  No XC core correction.
  1.024700          amesh (Hamman grid)
  pspatm : epsatm=    1.36305739
         --- l  ekb(1:nproj) -->
             0    1.768744
             1    0.900554
 pspatm: atomic psp has been read  and splines computed

   3.68025494E+01                                ecore*ucvol(ha*bohr**3)
--------------------------------------------------------------------------------

_setup2: Arith. and geom. avg. npw (full set) are     368.000     367.927

================================================================================

=== [ionmov= 2] Broyden-Fletcher-Goldfard-Shanno method (forces)            
================================================================================

--- Iteration: ( 1/10) Internal Cycle: (1/1)
--------------------------------------------------------------------------------

---SELF-CONSISTENT-FIELD CONVERGENCE--------------------------------------------

     iter   Etot(hartree)      deltaE(h)  residm     vres2    diffor    maxfor
 ETOT  1  -6.1840771996829    -6.184E+00 3.666E-03 1.848E+02 9.162E-03 9.162E-03
 ETOT  2  -6.2519483777149    -6.787E-02 8.254E-05 5.791E+00 1.421E-02 5.049E-03
 ETOT  3  -6.2539357660925    -1.987E-03 2.253E-05 9.942E-03 8.315E-04 4.217E-03
 ETOT  4  -6.2539520670585    -1.630E-05 8.709E-07 1.232E-03 1.110E-04 4.328E-03
 ETOT  5  -6.2539524330930    -3.660E-07 9.855E-08 6.192E-06 1.705E-05 4.311E-03
 ETOT  6  -6.2539524363467    -3.254E-09 8.751E-09 1.682E-08 1.865E-06 4.310E-03

 At SCF step    6, forces are converged : 
  for the second time, max diff in force=  1.865E-06 < toldff=  5.000E-05

 Cartesian components of stress tensor (hartree/bohr^3)
  sigma(1 1)=  1.30985025E-04  sigma(3 2)=  0.00000000E+00
  sigma(2 2)=  1.30985770E-04  sigma(3 1)=  0.00000000E+00
  sigma(3 3)= -5.46716117E-05  sigma(2 1)=  0.00000000E+00

 Integrated electronic density in atomic spheres:
 ------------------------------------------------
 Atom  Sphere_radius  Integrated_density
    1        2.00000          0.87350649
    2        2.00000          0.90553069
    3        2.00000          0.87350649

---OUTPUT-----------------------------------------------------------------------

 Cartesian coordinates (xcart) [bohr]
  0.00000000000000E+00  0.00000000000000E+00  0.00000000000000E+00
  0.00000000000000E+00  3.75279540000000E+00  3.75279545000000E+00
  0.00000000000000E+00  0.00000000000000E+00  7.50559090000000E+00
 Reduced coordinates (xred)
  0.00000000000000E+00  0.00000000000000E+00  0.00000000000000E+00
 -4.99999993338299E-01  4.99999993338299E-01  2.00000000000000E-01
  0.00000000000000E+00  0.00000000000000E+00  4.00000000000000E-01
 Cartesian forces (fcart) [Ha/bohr]; max,rms= 4.30955E-03 2.03154E-03 (free atoms)
 -5.51453741702018E-25  1.72526841743883E-08 -4.30955486108785E-03
 -5.51453741702018E-25 -3.45053683487766E-08 -0.00000000000000E+00
  1.10290748340404E-24  1.72526841743883E-08  4.30955486108785E-03
 Reduced forces (fred)
  6.47457946699315E-08 -6.47457946699315E-08  8.08643893710794E-02
 -1.29491589339863E-07  1.29491589339863E-07  0.00000000000000E+00
  6.47457946699315E-08 -6.47457946699315E-08 -8.08643893710794E-02
 Total energy (etotal) [Ha]= -6.25395243634670E+00

--- Iteration: ( 2/10) Internal Cycle: (1/1)
--------------------------------------------------------------------------------

---SELF-CONSISTENT-FIELD CONVERGENCE--------------------------------------------

     iter   Etot(hartree)      deltaE(h)  residm     vres2    diffor    maxfor
 ETOT  1  -6.2539883077703    -6.254E+00 1.389E-09 1.494E-03 1.059E-04 4.204E-03
 ETOT  2  -6.2539890833345    -7.756E-07 1.976E-11 5.251E-05 8.503E-06 4.195E-03
 ETOT  3  -6.2539891005601    -1.723E-08 2.138E-10 3.807E-07 3.668E-06 4.199E-03

 At SCF step    3, forces are converged : 
  for the second time, max diff in force=  3.668E-06 < toldff=  5.000E-05

 Cartesian components of stress tensor (hartree/bohr^3)
  sigma(1 1)=  1.32118573E-04  sigma(3 2)=  0.00000000E+00
  sigma(2 2)=  1.32118577E-04  sigma(3 1)=  0.00000000E+00
  sigma(3 3)= -5.32826553E-05  sigma(2 1)=  0.00000000E+00

 Integrated electronic density in atomic spheres:
 ------------------------------------------------
 Atom  Sphere_radius  Integrated_density
    1        2.00000          0.87358306
    2        2.00000          0.90494364
    3        2.00000          0.87358306

---OUTPUT-----------------------------------------------------------------------

 Cartesian coordinates (xcart) [bohr]
  0.00000000000000E+00  1.72526841743883E-08 -4.30955486108786E-03
  0.00000000000000E+00  3.75279536549463E+00  3.75279545000000E+00
  0.00000000000000E+00  1.72526841743883E-08  7.50990045486109E+00
 Reduced coordinates (xred)
 -2.29864435781976E-09  2.29864435781976E-09 -2.29671716378139E-04
 -4.99999988741011E-01  4.99999988741011E-01  2.00000000000000E-01
 -2.29864435781976E-09  2.29864435781976E-09  4.00229671716378E-01
 Cartesian forces (fcart) [Ha/bohr]; max,rms= 4.19886E-03 1.97936E-03 (free atoms)
  3.44658588563761E-26 -1.48321829319892E-09 -4.19886140995338E-03
 -6.89317177127523E-26  2.96643658639784E-09 -0.00000000000000E+00
  3.44658588563761E-26 -1.48321829319892E-09  4.19886140995338E-03
 Reduced forces (fred)
 -5.56621486207368E-09  5.56621486207368E-09  7.87873399722682E-02
  1.11324297241474E-08 -1.11324297241474E-08 -0.00000000000000E+00
 -5.56621486207368E-09  5.56621486207368E-09 -7.87873399722682E-02
 Total energy (etotal) [Ha]= -6.25398910056006E+00

 Difference of energy with previous step (new-old):
           Absolute (Ha)=-3.66642E-05
           Relative     =-5.86255E-06

--- Iteration: ( 3/10) Internal Cycle: (1/1)
--------------------------------------------------------------------------------

---SELF-CONSISTENT-FIELD CONVERGENCE--------------------------------------------

     iter   Etot(hartree)      deltaE(h)  residm     vres2    diffor    maxfor
 ETOT  1  -6.2541343755422    -6.254E+00 6.317E-07 1.137E+00 4.155E-03 4.362E-05
 ETOT  2  -6.2546788779701    -5.445E-04 6.766E-08 5.869E-02 9.384E-05 1.375E-04
 ETOT  3  -6.2546986485945    -1.977E-05 2.471E-07 7.703E-04 8.342E-05 2.209E-04
 ETOT  4  -6.2546989906721    -3.421E-07 2.198E-09 1.195E-06 1.257E-05 2.083E-04
 ETOT  5  -6.2546989923201    -1.648E-09 1.370E-10 2.283E-08 1.471E-06 2.068E-04

 At SCF step    5, forces are converged : 
  for the second time, max diff in force=  1.471E-06 < toldff=  5.000E-05

 Cartesian components of stress tensor (hartree/bohr^3)
  sigma(1 1)=  1.70726823E-04  sigma(3 2)=  0.00000000E+00
  sigma(2 2)=  1.70726823E-04  sigma(3 1)=  0.00000000E+00
  sigma(3 3)= -1.04518013E-06  sigma(2 1)=  0.00000000E+00

 Integrated electronic density in atomic spheres:
 ------------------------------------------------
 Atom  Sphere_radius  Integrated_density
    1        2.00000          0.91459207
    2        2.00000          0.88462636
    3        2.00000          0.91459207

---OUTPUT-----------------------------------------------------------------------

 Cartesian coordinates (xcart) [bohr]
  0.00000000000000E+00 -4.04924703117100E-08 -1.67781046787792E-01
  0.00000000000000E+00  3.75279548098494E+00  3.75279545000000E+00
  0.00000000000000E+00 -4.04924703117100E-08  7.67337194678781E+00
 Reduced coordinates (xred)
  5.39497433995636E-09 -5.39497433995636E-09 -8.94165690740178E-03
 -5.00000004128248E-01  5.00000004128248E-01  2.00000000000000E-01
  5.39497433995636E-09 -5.39497433995636E-09  4.08941656907403E-01
 Cartesian forces (fcart) [Ha/bohr]; max,rms= 2.06838E-04 9.75042E-05 (free atoms)
 -0.00000000000000E+00  6.02852660312619E-10 -2.06837617999508E-04
 -0.00000000000000E+00 -1.20570532062524E-09 -0.00000000000000E+00
 -0.00000000000000E+00  6.02852660312619E-10  2.06837617999508E-04
 Reduced forces (fred)
  2.26238272064159E-09 -2.26238272064159E-09  3.88109635858695E-03
 -4.52476544128318E-09  4.52476544128318E-09  0.00000000000000E+00
  2.26238272064159E-09 -2.26238272064159E-09 -3.88109635858695E-03
 Total energy (etotal) [Ha]= -6.25469899232005E+00

 Difference of energy with previous step (new-old):
           Absolute (Ha)=-7.09892E-04
           Relative     =-1.13504E-04

 At Broyd/MD step   3, gradients are converged : 
  max grad (force/stress) = 2.0684E-04 < tolmxf= 5.0000E-04 ha/bohr (free atoms)

================================================================================

 ----iterations are completed or convergence reached----

 Mean square residual over all n,k,spin=   10.292E-12; max=  13.701E-11
 reduced coordinates (array xred) for    3 atoms
       0.000000005395     -0.000000005395     -0.008941656907
      -0.500000004128      0.500000004128      0.200000000000
       0.000000005395     -0.000000005395      0.408941656907
 rms dE/dt=  1.8296E-03; max dE/dt=  3.8811E-03; dE/dt below (all hartree)
    1       0.000000002262     -0.000000002262      0.003881096359
    2      -0.000000004525      0.000000004525      0.000000000000
    3       0.000000002262     -0.000000002262     -0.003881096359

 cartesian coordinates (angstrom) at end:
    1      0.00000000000000    -0.00000002142769    -0.08878590599347
    2      0.00000000000000     1.98589383703678     1.98589382064025
    3      0.00000000000000    -0.00000002142769     4.06057354727399

 cartesian forces (hartree/bohr) at end:
    1     -0.00000000000000     0.00000000060285    -0.00020683761800
    2     -0.00000000000000    -0.00000000120571    -0.00000000000000
    3     -0.00000000000000     0.00000000060285     0.00020683761800
 frms,max,avg= 9.7504188E-05 2.0683762E-04   0.000E+00 -5.308E-14  0.000E+00 h/b

 cartesian forces (eV/Angstrom) at end:
    1     -0.00000000000000     0.00000003099993    -0.01063601706330
    2     -0.00000000000000    -0.00000006199986    -0.00000000000000
    3     -0.00000000000000     0.00000003099993     0.01063601706330
 frms,max,avg= 5.0138665E-03 1.0636017E-02   0.000E+00 -2.729E-12  0.000E+00 e/A
 length scales=  7.505590900000  7.505590900000  7.505590900000 bohr
              =  3.971787641281  3.971787641281  3.971787641281 angstroms
 prteigrs : about to open file tbase4_7o_DS1_EIG
 Fermi (or HOMO) energy (hartree) =   0.11278   Average Vxc (hartree)=  -0.27127
 Eigenvalues (hartree) for nkpt=   8  k points:
 kpt#   1, nband=  7, wtk=  0.12500, kpt= -0.1250  0.0000  0.0000 (reduced coord)
  -0.25690   -0.17597   -0.05911    0.05818    0.17162    0.23046    0.30446
      occupation numbers for kpt#   1
   2.00000    2.00000    2.00000    2.13319    0.00291    0.00019    0.00000
 prteigrs : prtvol=0 or 1, do not print more k-points.


--------------------------------------------------------------------------------
 Components of total free energy (in Hartree) :

    Kinetic energy  =  2.39243852849591E+00
    Hartree energy  =  3.34933895509007E+00
    XC energy       = -2.30507324544903E+00
    Ewald energy    = -3.40081238940868E+00
    PspCore energy  =  6.96326982763048E-02
    Loc. psp. energy= -7.72902702261666E+00
    NL   psp  energy=  1.37022816400103E+00
    >>>>> Internal E= -6.25327431161106E+00

    -kT*entropy     = -1.42468070899626E-03
    >>>>>>>>> Etotal= -6.25469899232005E+00

 Other information on the energy :
    Total energy(eV)= -1.70199015208776E+02 ; Band energy (Ha)=  -2.7015346260E-01
--------------------------------------------------------------------------------
 rms coord change=  4.2151E-03   atom, delta coord (reduced):
     1        0.000000005395     -0.000000005395     -0.008941656907
     2       -0.000000010790      0.000000010790      0.000000002665
     3        0.000000005395     -0.000000005395      0.008941656907

 Cartesian components of stress tensor (hartree/bohr^3)
  sigma(1 1)=  1.70726823E-04  sigma(3 2)=  0.00000000E+00
  sigma(2 2)=  1.70726823E-04  sigma(3 1)=  0.00000000E+00
  sigma(3 3)= -1.04518013E-06  sigma(2 1)=  0.00000000E+00

-Cartesian components of stress tensor (GPa)         [Pressure= -3.3384E+00 GPa]
- sigma(1 1)=  5.02295570E+00  sigma(3 2)=  0.00000000E+00
- sigma(2 2)=  5.02295571E+00  sigma(3 1)=  0.00000000E+00
- sigma(3 3)= -3.07502558E-02  sigma(2 1)=  0.00000000E+00

================================================================================
== DATASET  2 ==================================================================
-   nproc =    4

 Exchange-correlation functional for the present dataset will be:
  LDA: new Teter (4/93) with spin-polarized option - ixc=1
 Citation for XC functional:
  S. Goedecker, M. Teter, J. Huetter, PRB 54, 1703 (1996)

 Real(R)+Recip(G) space primitive vectors, cartesian coordinates (Bohr,Bohr^-1):
 R(1)=  3.7527955 -3.7527954  0.0000000  G(1)=  0.1332340 -0.1332340  0.0000000
 R(2)=  3.7527955  3.7527955  0.0000000  G(2)=  0.1332340  0.1332340  0.0000000
 R(3)=  0.0000000  0.0000000 22.5167727  G(3)=  0.0000000  0.0000000  0.0444113
 Unit cell volume ucvol=  6.3422875E+02 bohr^3
 Angles (23,13,12)=  9.00000000E+01  9.00000000E+01  9.00000000E+01 degrees

 getcut: wavevector=  0.0000  0.0000  0.0000  ngfft=  12  12  50
         ecut(hartree)=      6.000   => boxcut(ratio)=   2.01383
   6.54267545E+01                                ecore*ucvol(ha*bohr**3)
--------------------------------------------------------------------------------

_setup2: Arith. and geom. avg. npw (full set) are     444.250     444.191

================================================================================

=== [ionmov= 2] Broyden-Fletcher-Goldfard-Shanno method (forces)            
================================================================================

--- Iteration: ( 1/10) Internal Cycle: (1/1)
--------------------------------------------------------------------------------

---SELF-CONSISTENT-FIELD CONVERGENCE--------------------------------------------

     iter   Etot(hartree)      deltaE(h)  residm     vres2    diffor    maxfor
 ETOT  1  -8.2556962225054    -8.256E+00 9.940E-03 3.551E+02 7.720E-03 7.720E-03
 ETOT  2  -8.3494661576406    -9.377E-02 1.310E-04 1.948E+01 1.440E-02 6.680E-03
 ETOT  3  -8.3546543059369    -5.188E-03 4.218E-05 7.119E-02 1.432E-03 6.193E-03
 ETOT  4  -8.3546862293901    -3.192E-05 1.606E-06 3.774E-03 1.603E-04 6.250E-03
 ETOT  5  -8.3546873339291    -1.105E-06 2.469E-07 6.404E-07 1.736E-05 6.233E-03
 ETOT  6  -8.3546873353954    -1.466E-09 3.245E-08 6.373E-08 1.266E-06 6.233E-03

 At SCF step    6, forces are converged : 
  for the second time, max diff in force=  1.266E-06 < toldff=  5.000E-05

 Cartesian components of stress tensor (hartree/bohr^3)
  sigma(1 1)=  1.43477665E-04  sigma(3 2)= -6.47369572E-10
  sigma(2 2)=  1.43477590E-04  sigma(3 1)=  0.00000000E+00
  sigma(3 3)= -5.96717144E-05  sigma(2 1)=  0.00000000E+00

 Integrated electronic density in atomic spheres:
 ------------------------------------------------
 Atom  Sphere_radius  Integrated_density
    1        2.00000          0.88286343
    2        2.00000          0.94103687
    3        2.00000          0.94103687
    4        2.00000          0.88286343

---OUTPUT-----------------------------------------------------------------------

 Cartesian coordinates (xcart) [bohr]
  0.00000000000000E+00  0.00000000000000E+00  0.00000000000000E+00
  0.00000000000000E+00  3.75279540000000E+00  3.75279540000000E+00
  0.00000000000000E+00  0.00000000000000E+00  7.50559090000000E+00
  0.00000000000000E+00  3.75279540000000E+00  1.12583863000000E+01
 Reduced coordinates (xred)
  0.00000000000000E+00  0.00000000000000E+00  0.00000000000000E+00
 -4.99999993338299E-01  4.99999993338299E-01  1.66666664446100E-01
  0.00000000000000E+00  0.00000000000000E+00  3.33333333333333E-01
 -4.99999993338299E-01  4.99999993338299E-01  4.99999997779433E-01
 Cartesian forces (fcart) [Ha/bohr]; max,rms= 6.23291E-03 2.55521E-03 (free atoms)
  6.20385459414771E-25 -1.34252450801112E-08 -6.23291316271995E-03
 -2.06795153138257E-25 -1.90338299125748E-08  5.70405356545489E-04
 -2.06795153138257E-25  1.90338299125748E-08 -5.70405356545489E-04
 -2.06795153138257E-25  1.34252450801112E-08  6.23291316271995E-03
 Reduced forces (fred)
 -5.03821986517761E-08  5.03821986517761E-08  1.40345088943803E-01
 -7.14300702919846E-08  7.14300702919846E-08 -1.28436877601972E-02
  7.14300702919846E-08 -7.14300702919846E-08  1.28436877601972E-02
  5.03821986517761E-08 -5.03821986517761E-08 -1.40345088943803E-01
 Total energy (etotal) [Ha]= -8.35468733539544E+00

--- Iteration: ( 2/10) Internal Cycle: (1/1)
--------------------------------------------------------------------------------

---SELF-CONSISTENT-FIELD CONVERGENCE--------------------------------------------

     iter   Etot(hartree)      deltaE(h)  residm     vres2    diffor    maxfor
 ETOT  1  -8.3547605682865    -8.355E+00 3.562E-09 9.563E-03 3.037E-04 5.996E-03
 ETOT  2  -8.3547639682958    -3.400E-06 3.799E-10 3.822E-04 3.914E-05 5.994E-03
 ETOT  3  -8.3547640647884    -9.649E-08 3.352E-09 4.726E-06 6.390E-06 5.999E-03

 At SCF step    3, forces are converged : 
  for the second time, max diff in force=  6.390E-06 < toldff=  5.000E-05

 Cartesian components of stress tensor (hartree/bohr^3)
  sigma(1 1)=  1.44367029E-04  sigma(3 2)=  1.12261717E-11
  sigma(2 2)=  1.44367030E-04  sigma(3 1)=  0.00000000E+00
  sigma(3 3)= -5.70305014E-05  sigma(2 1)=  0.00000000E+00

 Integrated electronic density in atomic spheres:
 ------------------------------------------------
 Atom  Sphere_radius  Integrated_density
    1        2.00000          0.88300136
    2        2.00000          0.94064153
    3        2.00000          0.94064153
    4        2.00000          0.88300136

---OUTPUT-----------------------------------------------------------------------

 Cartesian coordinates (xcart) [bohr]
  0.00000000000000E+00 -1.34252450801112E-08 -6.23291316271995E-03
  0.00000000000000E+00  3.75279538096617E+00  3.75336580535655E+00
  0.00000000000000E+00  1.90338299125748E-08  7.50502049464346E+00
  0.00000000000000E+00  3.75279541342525E+00  1.12646192131627E+01
 Reduced coordinates (xred)
  1.78869928550345E-09 -1.78869928550345E-09 -2.76812012350240E-04
 -4.99999990802346E-01  4.99999990802346E-01  1.66691996911109E-01
 -2.53595355331381E-09  2.53595355331381E-09  3.33308000868324E-01
 -4.99999995126999E-01  4.99999995126999E-01  5.00276809791783E-01
 Cartesian forces (fcart) [Ha/bohr]; max,rms= 5.99919E-03 2.45221E-03 (free atoms)
 -0.00000000000000E+00 -4.17167227440264E-10 -5.99918715829268E-03
 -0.00000000000000E+00  1.98433838433888E-09  2.99412084932623E-04
 -0.00000000000000E+00 -1.98433838433888E-09 -2.99412084932623E-04
 -0.00000000000000E+00  4.17167227440264E-10  5.99918715829268E-03
 Reduced forces (fred)
 -1.56554327302694E-09  1.56554327302694E-09  1.35082333628035E-01
  7.44681606000731E-09 -7.44681606000731E-09 -6.74179386006096E-03
 -7.44681606000731E-09  7.44681606000731E-09  6.74179386006096E-03
  1.56554327302694E-09 -1.56554327302694E-09 -1.35082333628035E-01
 Total energy (etotal) [Ha]= -8.35476406478838E+00

 Difference of energy with previous step (new-old):
           Absolute (Ha)=-7.67294E-05
           Relative     =-9.18395E-06

--- Iteration: ( 3/10) Internal Cycle: (1/1)
--------------------------------------------------------------------------------

---SELF-CONSISTENT-FIELD CONVERGENCE--------------------------------------------

     iter   Etot(hartree)      deltaE(h)  residm     vres2    diffor    maxfor
 ETOT  1  -8.3544451916160    -8.354E+00 1.399E-06 3.634E+00 6.585E-03 6.286E-03
 ETOT  2  -8.3556890331037    -1.244E-03 2.859E-07 1.805E-01 8.796E-04 5.406E-03
 ETOT  3  -8.3557349451170    -4.591E-05 4.040E-07 2.629E-03 1.336E-04 5.540E-03
 ETOT  4  -8.3557358134189    -8.683E-07 5.381E-09 6.662E-06 1.240E-05 5.536E-03
 ETOT  5  -8.3557358177557    -4.337E-09 3.350E-09 6.104E-08 2.531E-06 5.539E-03

 At SCF step    5, forces are converged : 
  for the second time, max diff in force=  2.531E-06 < toldff=  5.000E-05

 Cartesian components of stress tensor (hartree/bohr^3)
  sigma(1 1)=  1.61595633E-04  sigma(3 2)=  1.24026539E-12
  sigma(2 2)=  1.61595633E-04  sigma(3 1)=  0.00000000E+00
  sigma(3 3)=  6.67868895E-06  sigma(2 1)=  0.00000000E+00

 Integrated electronic density in atomic spheres:
 ------------------------------------------------
 Atom  Sphere_radius  Integrated_density
    1        2.00000          0.90204707
    2        2.00000          0.95342308
    3        2.00000          0.95342308
    4        2.00000          0.90204707

---OUTPUT-----------------------------------------------------------------------

 Cartesian coordinates (xcart) [bohr]
  0.00000000000000E+00 -3.60817234375206E-08 -1.57891340010888E-01
  0.00000000000000E+00  3.75279541146538E+00  3.76117662923558E+00
 -8.27180612553028E-25 -1.14653792411613E-08  7.49720967076443E+00
  0.00000000000000E+00  3.75279543608173E+00  1.14162776400109E+01
 Reduced coordinates (xred)
  4.80731283096186E-09 -4.80731283096186E-09 -7.01216564711729E-03
 -4.99999994865878E-01  4.99999994865878E-01  1.67038886049402E-01
  1.52757849367480E-09 -1.52757849367480E-09  3.32961111730032E-01
 -4.99999998145613E-01  4.99999998145613E-01  5.07012163426549E-01
 Cartesian forces (fcart) [Ha/bohr]; max,rms= 5.53854E-03 2.28370E-03 (free atoms)
 -2.42338070083895E-27 -5.18156604686429E-11 -7.85001121774288E-04
  8.07793566946316E-28  3.03306661527233E-10 -5.53853695465001E-03
  8.07793566946316E-28 -3.03306661527233E-10  5.53853695465001E-03
  8.07793566946316E-28  5.18156604686429E-11  7.85001121774288E-04
 Reduced forces (fred)
 -1.94453574845468E-10  1.94453574845468E-10  1.76756918282367E-02
  1.13824785933409E-09 -1.13824785933409E-09  1.24709977698405E-01
 -1.13824785933409E-09  1.13824785933409E-09 -1.24709977698405E-01
  1.94453574845468E-10 -1.94453574845468E-10 -1.76756918282367E-02
 Total energy (etotal) [Ha]= -8.35573581775571E+00

 Difference of energy with previous step (new-old):
           Absolute (Ha)=-9.71753E-04
           Relative     =-1.16304E-04

--- Iteration: ( 4/10) Internal Cycle: (1/1)
--------------------------------------------------------------------------------

---SELF-CONSISTENT-FIELD CONVERGENCE--------------------------------------------

     iter   Etot(hartree)      deltaE(h)  residm     vres2    diffor    maxfor
 ETOT  1  -8.3557786645956    -8.356E+00 1.547E-07 9.067E-02 4.625E-04 5.853E-03
 ETOT  2  -8.3558114808304    -3.282E-05 4.723E-09 3.950E-03 1.309E-04 5.723E-03
 ETOT  3  -8.3558124821016    -1.001E-06 9.118E-09 7.918E-05 1.873E-05 5.741E-03
 ETOT  4  -8.3558125069312    -2.483E-08 1.432E-10 1.144E-07 2.106E-06 5.740E-03

 At SCF step    4, forces are converged : 
  for the second time, max diff in force=  2.106E-06 < toldff=  5.000E-05

 Cartesian components of stress tensor (hartree/bohr^3)
  sigma(1 1)=  1.63951704E-04  sigma(3 2)=  2.22501004E-12
  sigma(2 2)=  1.63951704E-04  sigma(3 1)=  0.00000000E+00
  sigma(3 3)=  1.44421475E-05  sigma(2 1)=  0.00000000E+00

 Integrated electronic density in atomic spheres:
 ------------------------------------------------
 Atom  Sphere_radius  Integrated_density
    1        2.00000          0.90292362
    2        2.00000          0.92983875
    3        2.00000          0.92983875
    4        2.00000          0.90292362

---OUTPUT-----------------------------------------------------------------------

 Cartesian coordinates (xcart) [bohr]
  0.00000000000000E+00 -5.07322782495130E-08 -1.77827337475803E-01
  0.00000000000000E+00  3.75279539656443E+00  3.75635327416472E+00
 -8.27180612553028E-25  3.43557405681141E-09  7.50203302583530E+00
  0.00000000000000E+00  3.75279545073228E+00  1.14362136374758E+01
 Reduced coordinates (xred)
  6.75926504993937E-09 -6.75926504993937E-09 -7.89754996619933E-03
 -4.99999992880564E-01  4.99999992880564E-01  1.66824674397709E-01
 -4.57735320587672E-10  4.57735320587672E-10  3.33175323381725E-01
 -5.00000000097565E-01  5.00000000097565E-01  5.07897547745631E-01
 Cartesian forces (fcart) [Ha/bohr]; max,rms= 5.74002E-03 2.34733E-03 (free atoms)
 -0.00000000000000E+00 -7.24571249107927E-11 -3.34745815184522E-04
 -0.00000000000000E+00  5.95210863570078E-10 -5.74001755645985E-03
 -0.00000000000000E+00 -5.95210863570078E-10  5.74001755645985E-03
 -0.00000000000000E+00  7.24571249107926E-11  3.34745815184522E-04
 Reduced forces (fred)
 -2.71916768685304E-10  2.71916768685304E-10  7.53739543278608E-03
  2.23370462059636E-09 -2.23370462059636E-09  1.29246670612816E-01
 -2.23370462059636E-09  2.23370462059636E-09 -1.29246670612816E-01
  2.71916768685304E-10 -2.71916768685304E-10 -7.53739543278608E-03
 Total energy (etotal) [Ha]= -8.35581250693116E+00

 Difference of energy with previous step (new-old):
           Absolute (Ha)=-7.66892E-05
           Relative     =-9.17799E-06

--- Iteration: ( 5/10) Internal Cycle: (1/1)
--------------------------------------------------------------------------------

---SELF-CONSISTENT-FIELD CONVERGENCE--------------------------------------------

     iter   Etot(hartree)      deltaE(h)  residm     vres2    diffor    maxfor
 ETOT  1  -8.3558467612055    -8.356E+00 6.727E-06 8.432E-01 1.637E-03 5.450E-03
 ETOT  2  -8.3561733336279    -3.266E-04 1.292E-07 4.180E-02 3.844E-04 5.066E-03
 ETOT  3  -8.3561837137336    -1.038E-05 1.351E-07 1.877E-03 5.294E-05 5.119E-03
 ETOT  4  -8.3561842559621    -5.422E-07 8.932E-09 1.559E-06 9.319E-06 5.111E-03
 ETOT  5  -8.3561842575671    -1.605E-09 3.045E-09 2.688E-08 9.836E-07 5.111E-03

 At SCF step    5, forces are converged : 
  for the second time, max diff in force=  9.836E-07 < toldff=  5.000E-05

 Cartesian components of stress tensor (hartree/bohr^3)
  sigma(1 1)=  1.76267328E-04  sigma(3 2)=  9.25559604E-12
  sigma(2 2)=  1.76267328E-04  sigma(3 1)=  0.00000000E+00
  sigma(3 3)=  4.93545639E-05  sigma(2 1)=  0.00000000E+00

 Integrated electronic density in atomic spheres:
 ------------------------------------------------
 Atom  Sphere_radius  Integrated_density
    1        2.00000          0.90255386
    2        2.00000          0.91948272
    3        2.00000          0.91948272
    4        2.00000          0.90255385

---OUTPUT-----------------------------------------------------------------------

 Cartesian coordinates (xcart) [bohr]
  0.00000000000000E+00 -1.58024113604355E-07 -2.72770808749508E-01
  0.00000000000000E+00  3.75279526758629E+00  3.71471568135925E+00
  0.00000000000000E+00  1.32413709831097E-07  7.54367061864077E+00
  0.00000000000000E+00  3.75279555802412E+00  1.15311571087495E+01
 Reduced coordinates (xred)
  2.10541869001087E-08 -2.10541869001087E-08 -1.21141165469733E-02
 -4.99999975696289E-01  4.99999975696289E-01  1.64975493195757E-01
 -1.76420100156401E-08  1.76420100156401E-08  3.35024504583677E-01
 -5.00000014392487E-01  5.00000014392487E-01  5.12114114326405E-01
 Cartesian forces (fcart) [Ha/bohr]; max,rms= 5.11139E-03 2.13880E-03 (free atoms)
 -0.00000000000000E+00 -4.20942685191234E-10  1.14914402375431E-03
 -0.00000000000000E+00  2.79196993280517E-09 -5.11139127892732E-03
 -0.00000000000000E+00 -2.79196993280517E-09  5.11139127892732E-03
 -0.00000000000000E+00  4.20942685191234E-10 -1.14914402375431E-03
 Reduced forces (fred)
 -1.57971179369645E-09  1.57971179369645E-09 -2.58750147824391E-02
  1.04776920603681E-08 -1.04776920603681E-08  1.15092035608369E-01
 -1.04776920603681E-08  1.04776920603681E-08 -1.15092035608369E-01
  1.57971179369645E-09 -1.57971179369645E-09  2.58750147824391E-02
 Total energy (etotal) [Ha]= -8.35618425756707E+00

 Difference of energy with previous step (new-old):
           Absolute (Ha)=-3.71751E-04
           Relative     =-4.44891E-05

--- Iteration: ( 6/10) Internal Cycle: (1/1)
--------------------------------------------------------------------------------

---SELF-CONSISTENT-FIELD CONVERGENCE--------------------------------------------

     iter   Etot(hartree)      deltaE(h)  residm     vres2    diffor    maxfor
 ETOT  1  -8.3563751619567    -8.356E+00 2.883E-06 6.450E-02 1.736E-03 3.375E-03
 ETOT  2  -8.3564118609309    -3.670E-05 8.999E-08 2.625E-03 1.022E-04 3.296E-03
 ETOT  3  -8.3564125151623    -6.542E-07 4.047E-08 1.968E-04 1.223E-05 3.306E-03
 ETOT  4  -8.3564125720794    -5.692E-08 5.385E-09 1.030E-06 3.672E-06 3.303E-03

 At SCF step    4, forces are converged : 
  for the second time, max diff in force=  3.672E-06 < toldff=  5.000E-05

 Cartesian components of stress tensor (hartree/bohr^3)
  sigma(1 1)=  1.84192338E-04  sigma(3 2)=  1.15106853E-11
  sigma(2 2)=  1.84192338E-04  sigma(3 1)=  0.00000000E+00
  sigma(3 3)=  6.60264706E-05  sigma(2 1)=  0.00000000E+00

 Integrated electronic density in atomic spheres:
 ------------------------------------------------
 Atom  Sphere_radius  Integrated_density
    1        2.00000          0.87764760
    2        2.00000          0.92311309
    3        2.00000          0.92311309
    4        2.00000          0.87764760

---OUTPUT-----------------------------------------------------------------------

 Cartesian coordinates (xcart) [bohr]
  0.00000000000000E+00 -2.57090462732410E-07 -3.24608249605250E-01
  0.00000000000000E+00  3.75279513760662E+00  3.67208104242093E+00
  0.00000000000000E+00  2.62393383817453E-07  7.58630525757909E+00
  0.00000000000000E+00  3.75279565709047E+00  1.15829945496052E+01
 Reduced coordinates (xred)
  3.42531942065227E-08 -3.42531942065227E-08 -1.44162866468537E-02
 -4.99999958378576E-01  4.99999958378576E-01  1.63082031841132E-01
 -3.49597236664541E-08  3.49597236664541E-08  3.36917965938302E-01
 -5.00000027591494E-01  5.00000027591494E-01  5.14416284426285E-01
 Cartesian forces (fcart) [Ha/bohr]; max,rms= 3.30325E-03 1.45437E-03 (free atoms)
 -0.00000000000000E+00 -7.94549204663475E-10  1.33404795760049E-03
 -0.00000000000000E+00  4.21989864952955E-09 -3.30325229096319E-03
 -0.00000000000000E+00 -4.21989864952955E-09  3.30325229096319E-03
 -0.00000000000000E+00  7.94549204663475E-10 -1.33404795760049E-03
 Reduced forces (fred)
 -2.98178064006221E-09  2.98178064006221E-09 -3.00384546321894E-02
  1.58364164514156E-08 -1.58364164514156E-08  7.43785810063723E-02
 -1.58364164514156E-08  1.58364164514156E-08 -7.43785810063723E-02
  2.98178064006221E-09 -2.98178064006221E-09  3.00384546321894E-02
 Total energy (etotal) [Ha]= -8.35641257207941E+00

 Difference of energy with previous step (new-old):
           Absolute (Ha)=-2.28315E-04
           Relative     =-2.73224E-05

--- Iteration: ( 7/10) Internal Cycle: (1/1)
--------------------------------------------------------------------------------

---SELF-CONSISTENT-FIELD CONVERGENCE--------------------------------------------

     iter   Etot(hartree)      deltaE(h)  residm     vres2    diffor    maxfor
 ETOT  1  -8.3564969706069    -8.356E+00 6.002E-07 1.565E-01 2.362E-03 9.416E-04
 ETOT  2  -8.3565395911239    -4.262E-05 3.628E-08 7.259E-03 1.224E-04 1.028E-03
 ETOT  3  -8.3565415531970    -1.962E-06 1.283E-08 3.619E-05 1.957E-05 1.008E-03
 ETOT  4  -8.3565415684140    -1.522E-08 5.791E-10 7.406E-07 1.165E-06 1.007E-03

 At SCF step    4, forces are converged : 
  for the second time, max diff in force=  1.165E-06 < toldff=  5.000E-05

 Cartesian components of stress tensor (hartree/bohr^3)
  sigma(1 1)=  1.88445707E-04  sigma(3 2)=  9.25218316E-12
  sigma(2 2)=  1.88445707E-04  sigma(3 1)=  0.00000000E+00
  sigma(3 3)=  6.87373165E-05  sigma(2 1)=  0.00000000E+00

 Integrated electronic density in atomic spheres:
 ------------------------------------------------
 Atom  Sphere_radius  Integrated_density
    1        2.00000          0.87982980
    2        2.00000          0.91011582
    3        2.00000          0.91011582
    4        2.00000          0.87982979

---OUTPUT-----------------------------------------------------------------------

 Cartesian coordinates (xcart) [bohr]
  0.00000000000000E+00 -3.38924658011283E-07 -3.41271554359067E-01
  0.00000000000000E+00  3.75279502602327E+00  3.63414246219965E+00
  0.00000000000000E+00  3.73976728299029E-07  7.62424383780037E+00
  0.00000000000000E+00  3.75279573892466E+00  1.15996578543590E+01
 Reduced coordinates (xred)
  4.51562924927447E-08 -4.51562924927447E-08 -1.51563263042162E-02
 -4.99999943511879E-01  4.99999943511879E-01  1.61397128736821E-01
 -4.98264205019526E-08  4.98264205019526E-08  3.38602869042612E-01
 -5.00000038494592E-01  5.00000038494592E-01  5.15156324083648E-01
 Cartesian forces (fcart) [Ha/bohr]; max,rms= 1.00704E-03 4.94365E-04 (free atoms)
 -1.55096364853693E-25 -1.18172625919104E-09  6.72498763871848E-04
  2.58493941422821E-25  4.87374613583065E-09 -1.00703873561000E-03
 -1.55096364853693E-25 -4.87374613583065E-09  1.00703873561000E-03
  5.16987882845642E-26  1.18172625919104E-09 -6.72498763871848E-04
 Reduced forces (fred)
 -4.43477692863767E-09  4.43477692863767E-09 -1.51425018071334E-02
  1.82901723230003E-08 -1.82901723230003E-08  2.26752623098258E-02
 -1.82901723230003E-08  1.82901723230003E-08 -2.26752623098258E-02
  4.43477692863767E-09 -4.43477692863767E-09  1.51425018071334E-02
 Total energy (etotal) [Ha]= -8.35654156841405E+00

 Difference of energy with previous step (new-old):
           Absolute (Ha)=-1.28996E-04
           Relative     =-1.54367E-05

--- Iteration: ( 8/10) Internal Cycle: (1/1)
--------------------------------------------------------------------------------

---SELF-CONSISTENT-FIELD CONVERGENCE--------------------------------------------

     iter   Etot(hartree)      deltaE(h)  residm     vres2    diffor    maxfor
 ETOT  1  -8.3565543386730    -8.357E+00 1.048E-09 1.528E-02 9.522E-04 1.417E-04
 ETOT  2  -8.3565585847438    -4.246E-06 8.105E-10 8.762E-04 2.981E-05 1.304E-04
 ETOT  3  -8.3565588250482    -2.403E-07 1.320E-09 5.392E-06 6.321E-06 1.367E-04

 At SCF step    3, forces are converged : 
  for the second time, max diff in force=  6.321E-06 < toldff=  5.000E-05

 Cartesian components of stress tensor (hartree/bohr^3)
  sigma(1 1)=  1.88384795E-04  sigma(3 2)=  8.00611965E-12
  sigma(2 2)=  1.88384795E-04  sigma(3 1)=  0.00000000E+00
  sigma(3 3)=  6.40427267E-05  sigma(2 1)=  0.00000000E+00

 Integrated electronic density in atomic spheres:
 ------------------------------------------------
 Atom  Sphere_radius  Integrated_density
    1        2.00000          0.88015124
    2        2.00000          0.91015173
    3        2.00000          0.91015173
    4        2.00000          0.88015123

---OUTPUT-----------------------------------------------------------------------

 Cartesian coordinates (xcart) [bohr]
  0.00000000000000E+00 -3.56851477487554E-07 -3.32267050910772E-01
  0.00000000000000E+00  3.75279500426361E+00  3.62497839905654E+00
  0.00000000000000E+00  3.95736395997009E-07  7.63340790094348E+00
  0.00000000000000E+00  3.75279575685148E+00  1.15906533509107E+01
 Reduced coordinates (xred)
  4.75447546025395E-08 -4.75447546025395E-08 -1.47564242592711E-02
 -4.99999940612751E-01  4.99999940612751E-01  1.60990140432360E-01
 -5.27255483638216E-08  5.27255483638216E-08  3.39009857347074E-01
 -5.00000040883054E-01  5.00000040883054E-01  5.14756422038703E-01
 Cartesian forces (fcart) [Ha/bohr]; max,rms= 1.36746E-04 6.45836E-05 (free atoms)
 -2.06795153138257E-25 -1.26553040646050E-09  1.36745519252474E-04
 -2.06795153138257E-25  4.88623454054863E-09 -7.95418557149035E-05
  6.20385459414771E-25 -4.88623454054863E-09  7.95418557149035E-05
 -2.06795153138257E-25  1.26553040646050E-09 -1.36745519252474E-04
 Reduced forces (fred)
 -4.74927675120163E-09  4.74927675120163E-09 -3.07906777475143E-03
  1.83370387514037E-08 -1.83370387514037E-08  1.79102588526868E-03
 -1.83370387514037E-08  1.83370387514037E-08 -1.79102588526868E-03
  4.74927675120163E-09 -4.74927675120163E-09  3.07906777475143E-03
 Total energy (etotal) [Ha]= -8.35655882504816E+00

 Difference of energy with previous step (new-old):
           Absolute (Ha)=-1.72566E-05
           Relative     =-2.06504E-06

 At Broyd/MD step   8, gradients are converged : 
  max grad (force/stress) = 1.3675E-04 < tolmxf= 5.0000E-04 ha/bohr (free atoms)

================================================================================

 ----iterations are completed or convergence reached----

 Mean square residual over all n,k,spin=   51.592E-11; max=  13.200E-10
 reduced coordinates (array xred) for    4 atoms
       0.000000047545     -0.000000047545     -0.014756424259
      -0.499999940613      0.499999940613      0.160990140432
      -0.000000052726      0.000000052726      0.339009857347
      -0.500000040883      0.500000040883      0.514756422039
 rms dE/dt=  1.4542E-03; max dE/dt=  3.0791E-03; dE/dt below (all hartree)
    1      -0.000000004749      0.000000004749     -0.003079067775
    2       0.000000018337     -0.000000018337      0.001791025885
    3      -0.000000018337      0.000000018337     -0.001791025885
    4       0.000000004749     -0.000000004749      0.003079067775

 cartesian coordinates (angstrom) at end:
    1      0.00000000000000    -0.00000018883767    -0.17582815050739
    2      0.00000000000000     1.98589358476671     1.91825595041179
    3      0.00000000000000     0.00000020941468     4.03942548505012
    4      0.00000000000000     1.98589398301906     6.13350958596927

 cartesian forces (hartree/bohr) at end:
    1     -0.00000000000000    -0.00000000126553     0.00013674551925
    2     -0.00000000000000     0.00000000488623    -0.00007954185571
    3      0.00000000000000    -0.00000000488623     0.00007954185571
    4     -0.00000000000000     0.00000000126553    -0.00013674551925
 frms,max,avg= 6.4583594E-05 1.3674552E-04   0.000E+00  0.000E+00  0.000E+00 h/b

 cartesian forces (eV/Angstrom) at end:
    1     -0.00000000000000    -0.00000006507618     0.00703173673225
    2     -0.00000000000000     0.00000025126026    -0.00409020633100
    3      0.00000000000000    -0.00000025126026     0.00409020633100
    4     -0.00000000000000     0.00000006507618    -0.00703173673225
 frms,max,avg= 3.3210217E-03 7.0317367E-03   0.000E+00  0.000E+00  0.000E+00 e/A
 length scales=  7.505590900000  7.505590900000  7.505590900000 bohr
              =  3.971787641281  3.971787641281  3.971787641281 angstroms
 prteigrs : about to open file tbase4_7o_DS2_EIG
 Fermi (or HOMO) energy (hartree) =   0.14406   Average Vxc (hartree)=  -0.28823
 Eigenvalues (hartree) for nkpt=   8  k points:
 kpt#   1, nband=  8, wtk=  0.12500, kpt= -0.1250  0.0000  0.0000 (reduced coord)
  -0.23665   -0.18940   -0.11481   -0.01312    0.06569    0.20826    0.25205    0.25923
      occupation numbers for kpt#   1
   2.00000    2.00000    2.00000    2.00000    2.04104    0.00453    0.00057    0.00026
 prteigrs : prtvol=0 or 1, do not print more k-points.


--------------------------------------------------------------------------------
 Components of total free energy (in Hartree) :

    Kinetic energy  =  3.20656160778811E+00
    Hartree energy  =  4.56483095499019E+00
    XC energy       = -3.09388880653684E+00
    Ewald energy    = -4.76149921117457E+00
    PspCore energy  =  1.03159553001933E-01
    Loc. psp. energy= -1.01852349683232E+01
    NL   psp  energy=  1.81127112294418E+00
    >>>>> Internal E= -8.35479974731024E+00

    -kT*entropy     = -1.75907773792236E-03
    >>>>>>>>> Etotal= -8.35655882504816E+00

 Other information on the energy :
    Total energy(eV)= -2.27393529937056E+02 ; Band energy (Ha)=  -6.8024943650E-02
--------------------------------------------------------------------------------
 rms coord change=  6.4546E-03   atom, delta coord (reduced):
     1        0.000000047545     -0.000000047545     -0.014756424259
     2        0.000000052726     -0.000000052726     -0.005676524014
     3       -0.000000052726      0.000000052726      0.005676524014
     4       -0.000000047545      0.000000047545      0.014756424259

 Cartesian components of stress tensor (hartree/bohr^3)
  sigma(1 1)=  1.88384795E-04  sigma(3 2)=  8.00611965E-12
  sigma(2 2)=  1.88384795E-04  sigma(3 1)=  0.00000000E+00
  sigma(3 3)=  6.40427267E-05  sigma(2 1)=  0.00000000E+00

-Cartesian components of stress tensor (GPa)         [Pressure= -4.3230E+00 GPa]
- sigma(1 1)=  5.54247108E+00  sigma(3 2)=  2.35548133E-07
- sigma(2 2)=  5.54247108E+00  sigma(3 1)=  0.00000000E+00
- sigma(3 3)=  1.88420175E+00  sigma(2 1)=  0.00000000E+00

================================================================================
== DATASET  3 ==================================================================
-   nproc =    4

 Exchange-correlation functional for the present dataset will be:
  LDA: new Teter (4/93) with spin-polarized option - ixc=1
 Citation for XC functional:
  S. Goedecker, M. Teter, J. Huetter, PRB 54, 1703 (1996)

 Real(R)+Recip(G) space primitive vectors, cartesian coordinates (Bohr,Bohr^-1):
 R(1)=  3.7527955 -3.7527954  0.0000000  G(1)=  0.1332340 -0.1332340  0.0000000
 R(2)=  3.7527955  3.7527955  0.0000000  G(2)=  0.1332340  0.1332340  0.0000000
 R(3)=  0.0000000  0.0000000 26.2695682  G(3)=  0.0000000  0.0000000  0.0380669
 Unit cell volume ucvol=  7.3993354E+02 bohr^3
 Angles (23,13,12)=  9.00000000E+01  9.00000000E+01  9.00000000E+01 degrees

 getcut: wavevector=  0.0000  0.0000  0.0000  ngfft=  12  12  60
         ecut(hartree)=      6.000   => boxcut(ratio)=   2.05055
   1.02229304E+02                                ecore*ucvol(ha*bohr**3)
--------------------------------------------------------------------------------

_setup2: Arith. and geom. avg. npw (full set) are     520.000     519.866

================================================================================

=== [ionmov= 2] Broyden-Fletcher-Goldfard-Shanno method (forces)            
================================================================================

--- Iteration: ( 1/10) Internal Cycle: (1/1)
--------------------------------------------------------------------------------

---SELF-CONSISTENT-FIELD CONVERGENCE--------------------------------------------

     iter   Etot(hartree)      deltaE(h)  residm     vres2    diffor    maxfor
 ETOT  1  -10.301544102846    -1.030E+01 3.593E-03 7.614E+02 1.647E-02 1.647E-02
 ETOT  2  -10.446676728063    -1.451E-01 8.868E-04 3.753E+01 1.916E-02 2.692E-03
 ETOT  3  -10.453604038780    -6.927E-03 1.004E-04 1.099E-01 1.179E-03 2.203E-03
 ETOT  4  -10.453640569799    -3.653E-05 5.288E-05 8.505E-03 8.406E-05 2.287E-03
 ETOT  5  -10.453642172613    -1.603E-06 2.561E-05 8.319E-06 2.124E-05 2.266E-03
 ETOT  6  -10.453642176416    -3.803E-09 4.329E-05 1.281E-07 1.214E-06 2.264E-03

 At SCF step    6, forces are converged : 
  for the second time, max diff in force=  1.214E-06 < toldff=  5.000E-05

 Cartesian components of stress tensor (hartree/bohr^3)
  sigma(1 1)=  1.19363308E-04  sigma(3 2)=  0.00000000E+00
  sigma(2 2)=  1.19363162E-04  sigma(3 1)=  0.00000000E+00
  sigma(3 3)= -4.44243269E-05  sigma(2 1)=  0.00000000E+00

 Integrated electronic density in atomic spheres:
 ------------------------------------------------
 Atom  Sphere_radius  Integrated_density
    1        2.00000          0.87737216
    2        2.00000          0.94867101
    3        2.00000          0.94951885
    4        2.00000          0.93841335
    5        2.00000          0.89635761

---OUTPUT-----------------------------------------------------------------------

 Cartesian coordinates (xcart) [bohr]
  0.00000000000000E+00  0.00000000000000E+00  0.00000000000000E+00
  0.00000000000000E+00  3.75279540000000E+00  3.75279545000000E+00
  0.00000000000000E+00  0.00000000000000E+00  7.50559090000000E+00
  0.00000000000000E+00  3.75279540000000E+00  1.12583863500000E+01
  0.00000000000000E+00  0.00000000000000E+00  1.50111818000000E+01
 Reduced coordinates (xred)
  0.00000000000000E+00  0.00000000000000E+00  0.00000000000000E+00
 -4.99999993338299E-01  4.99999993338299E-01  1.42857142857143E-01
  0.00000000000000E+00  0.00000000000000E+00  2.85714285714286E-01
 -4.99999993338299E-01  4.99999993338299E-01  4.28571428571429E-01
  0.00000000000000E+00  0.00000000000000E+00  5.71428571428571E-01
 Cartesian forces (fcart) [Ha/bohr]; max,rms= 2.26448E-03 9.14699E-04 (free atoms)
  1.65436122510606E-25  2.22745660508414E-09 -2.26448211992628E-03
 -4.13590306276514E-26  9.88719373004626E-11 -1.07106321912897E-03
 -4.13590306276514E-26 -4.65265708476920E-09 -0.00000000000000E+00
 -4.13590306276514E-26  9.88719373004626E-11  1.07106321912897E-03
 -4.13590306276514E-26  2.22745660508414E-09  2.26448211992628E-03
 Reduced forces (fred)
  8.35918901263219E-09 -8.35918901263219E-09  5.94869673738598E-02
  3.71046156433862E-10 -3.71046156433861E-10  2.81363682278669E-02
 -1.74604703381321E-08  1.74604703381321E-08  0.00000000000000E+00
  3.71046156433862E-10 -3.71046156433861E-10 -2.81363682278669E-02
  8.35918901263219E-09 -8.35918901263219E-09 -5.94869673738598E-02
 Total energy (etotal) [Ha]= -1.04536421764158E+01

--- Iteration: ( 2/10) Internal Cycle: (1/1)
--------------------------------------------------------------------------------

---SELF-CONSISTENT-FIELD CONVERGENCE--------------------------------------------

     iter   Etot(hartree)      deltaE(h)  residm     vres2    diffor    maxfor
 ETOT  1  -10.453653523440    -1.045E+01 2.480E-05 4.697E-03 4.251E-05 2.222E-03
 ETOT  2  -10.453654623860    -1.100E-06 1.120E-05 9.767E-05 2.171E-05 2.226E-03
 ETOT  3  -10.453654643190    -1.933E-08 2.906E-06 5.087E-07 2.335E-06 2.227E-03

 At SCF step    3, forces are converged : 
  for the second time, max diff in force=  2.335E-06 < toldff=  5.000E-05

 Cartesian components of stress tensor (hartree/bohr^3)
  sigma(1 1)=  1.19687652E-04  sigma(3 2)=  0.00000000E+00
  sigma(2 2)=  1.19687646E-04  sigma(3 1)=  0.00000000E+00
  sigma(3 3)= -4.36888698E-05  sigma(2 1)=  0.00000000E+00

 Integrated electronic density in atomic spheres:
 ------------------------------------------------
 Atom  Sphere_radius  Integrated_density
    1        2.00000          0.87750587
    2        2.00000          0.94849102
    3        2.00000          0.94935396
    4        2.00000          0.93823859
    5        2.00000          0.89650131

---OUTPUT-----------------------------------------------------------------------

 Cartesian coordinates (xcart) [bohr]
  0.00000000000000E+00  2.22745660508414E-09 -2.26448211992628E-03
  0.00000000000000E+00  3.75279540009887E+00  3.75172438678087E+00
  0.00000000000000E+00 -4.65265708476920E-09  7.50559090000000E+00
  0.00000000000000E+00  3.75279540009887E+00  1.12594574132191E+01
  0.00000000000000E+00  2.22745660508414E-09  1.50134462821199E+01
 Reduced coordinates (xred)
 -2.96772983601349E-10  2.96772983601349E-10 -8.62017261568983E-05
 -4.99999993351472E-01  4.99999993351472E-01  1.42816370842429E-01
  6.19892177279366E-10 -6.19892177279366E-10  2.85714285714286E-01
 -4.99999993351472E-01  4.99999993351472E-01  4.28612200586142E-01
 -2.96772983601349E-10  2.96772983601349E-10  5.71514773154728E-01
 Cartesian forces (fcart) [Ha/bohr]; max,rms= 2.22722E-03 9.02647E-04 (free atoms)
 -0.00000000000000E+00 -1.13381018673716E-10 -2.22722343458693E-03
 -0.00000000000000E+00  6.26796680757778E-11 -1.07250020926678E-03
 -0.00000000000000E+00  1.01402701195875E-10 -8.67361737988404E-20
 -0.00000000000000E+00  6.26796680757778E-11  1.07250020926678E-03
 -0.00000000000000E+00 -1.13381018673716E-10  2.22722343458693E-03
 Reduced forces (fred)
 -4.25495770995085E-10  4.25495770995085E-10  5.85081978001585E-02
  2.35223973162289E-10 -2.35223973162289E-10  2.81741173382229E-02
  3.80543595665591E-10 -3.80543595665591E-10  2.27852182867888E-18
  2.35223973162289E-10 -2.35223973162289E-10 -2.81741173382229E-02
 -4.25495770995085E-10  4.25495770995085E-10 -5.85081978001585E-02
 Total energy (etotal) [Ha]= -1.04536546431899E+01

 Difference of energy with previous step (new-old):
           Absolute (Ha)=-1.24668E-05
           Relative     =-1.19258E-06

--- Iteration: ( 3/10) Internal Cycle: (1/1)
--------------------------------------------------------------------------------

---SELF-CONSISTENT-FIELD CONVERGENCE--------------------------------------------

     iter   Etot(hartree)      deltaE(h)  residm     vres2    diffor    maxfor
 ETOT  1  -10.451742763100    -1.045E+01 3.584E-05 1.007E+01 3.132E-03 1.974E-03
 ETOT  2  -10.454079002831    -2.336E-03 4.990E-06 2.958E-01 9.541E-04 1.020E-03
 ETOT  3  -10.454137369599    -5.837E-05 1.744E-05 3.441E-03 1.163E-04 1.137E-03
 ETOT  4  -10.454138101476    -7.319E-07 1.689E-06 3.808E-06 7.485E-06 1.129E-03
 ETOT  5  -10.454138102898    -1.422E-09 4.225E-06 4.850E-08 5.216E-07 1.130E-03

 At SCF step    5, forces are converged : 
  for the second time, max diff in force=  5.216E-07 < toldff=  5.000E-05

 Cartesian components of stress tensor (hartree/bohr^3)
  sigma(1 1)=  1.42758289E-04  sigma(3 2)=  0.00000000E+00
  sigma(2 2)=  1.42758285E-04  sigma(3 1)=  0.00000000E+00
  sigma(3 3)=  1.01474656E-05  sigma(2 1)=  0.00000000E+00

 Integrated electronic density in atomic spheres:
 ------------------------------------------------
 Atom  Sphere_radius  Integrated_density
    1        2.00000          0.90472515
    2        2.00000          0.93672120
    3        2.00000          0.93746336
    4        2.00000          0.91578341
    5        2.00000          0.89088964

---OUTPUT-----------------------------------------------------------------------

 Cartesian coordinates (xcart) [bohr]
  0.00000000000000E+00 -5.75707459523045E-09 -1.71604702746840E-01
  0.00000000000000E+00  3.75279540487409E+00  3.67018532735360E+00
  0.00000000000000E+00  1.76600299471268E-09  7.50559090000000E+00
  0.00000000000000E+00  3.75279540487409E+00  1.13409964726464E+01
  0.00000000000000E+00 -5.75707459523045E-09  1.51827865027468E+01
 Reduced coordinates (xred)
  7.67038154881376E-10 -7.67038154881376E-10 -6.53245237100860E-03
 -4.99999993987694E-01  4.99999993987694E-01  1.39712434798956E-01
 -2.35291667004217E-10  2.35291667004217E-10  2.85714285714286E-01
 -4.99999993987694E-01  4.99999993987694E-01  4.31716136629616E-01
  7.67038154881376E-10 -7.67038154881376E-10  5.77961023799580E-01
 Cartesian forces (fcart) [Ha/bohr]; max,rms= 1.12977E-03 4.34359E-04 (free atoms)
  3.87740912134232E-26 -9.13376410541001E-11  3.72332863568228E-04
 -3.87740912134232E-26  4.51148168667818E-10 -1.12976773907787E-03
 -1.29246970711411E-26 -7.19621055227435E-10 -4.33680868994202E-20
 -3.87740912134232E-26  4.51148168667818E-10  1.12976773907787E-03
  5.16987882845642E-26 -9.13376410541001E-11 -3.72332863568229E-04
 Reduced forces (fred)
 -3.42771483761560E-10  3.42771483761560E-10 -9.78102353399023E-03
  1.69306679465242E-09 -1.69306679465242E-09  2.96785106153775E-02
 -2.70059062178172E-09  2.70059062178172E-09  1.13926091433944E-18
  1.69306679465242E-09 -1.69306679465242E-09 -2.96785106153775E-02
 -3.42771483761560E-10  3.42771483761560E-10  9.78102353399023E-03
 Total energy (etotal) [Ha]= -1.04541381028980E+01

 Difference of energy with previous step (new-old):
           Absolute (Ha)=-4.83460E-04
           Relative     =-4.62468E-05

--- Iteration: ( 4/10) Internal Cycle: (1/1)
--------------------------------------------------------------------------------

---SELF-CONSISTENT-FIELD CONVERGENCE--------------------------------------------

     iter   Etot(hartree)      deltaE(h)  residm     vres2    diffor    maxfor
 ETOT  1  -10.454120823664    -1.045E+01 8.577E-07 9.133E-02 1.565E-04 1.140E-03
 ETOT  2  -10.454142790249    -2.197E-05 2.521E-07 2.267E-03 8.753E-05 1.053E-03
 ETOT  3  -10.454143243999    -4.537E-07 1.495E-07 1.915E-05 1.063E-05 1.063E-03
 ETOT  4  -10.454143248207    -4.209E-09 7.828E-08 3.102E-08 6.114E-07 1.063E-03

 At SCF step    4, forces are converged : 
  for the second time, max diff in force=  6.114E-07 < toldff=  5.000E-05

 Cartesian components of stress tensor (hartree/bohr^3)
  sigma(1 1)=  1.44231566E-04  sigma(3 2)=  0.00000000E+00
  sigma(2 2)=  1.44231565E-04  sigma(3 1)=  0.00000000E+00
  sigma(3 3)=  1.36089186E-05  sigma(2 1)=  0.00000000E+00

 Integrated electronic density in atomic spheres:
 ------------------------------------------------
 Atom  Sphere_radius  Integrated_density
    1        2.00000          0.90536445
    2        2.00000          0.93590293
    3        2.00000          0.93652666
    4        2.00000          0.92558154
    5        2.00000          0.89156392

---OUTPUT-----------------------------------------------------------------------

 Cartesian coordinates (xcart) [bohr]
  0.00000000000000E+00 -5.79618648074430E-09 -1.82937968809033E-01
  0.00000000000000E+00  3.75279540569530E+00  3.66333688078112E+00
  0.00000000000000E+00  2.01793714641249E-10  7.50559090000000E+00
  0.00000000000000E+00  3.75279540569530E+00  1.13478449192189E+01
  0.00000000000000E+00 -5.79618648074430E-09  1.51941197688090E+01
 Reduced coordinates (xred)
  7.72249188367607E-10 -7.72249188367607E-10 -6.96387423517784E-03
 -4.99999994097108E-01  4.99999994097108E-01  1.39451735935032E-01
 -2.68857865196528E-11  2.68857865196528E-11  2.85714285714286E-01
 -4.99999994097108E-01  4.99999994097108E-01  4.31976835493540E-01
  7.72249188367607E-10 -7.72249188367607E-10  5.78392445663749E-01
 Cartesian forces (fcart) [Ha/bohr]; max,rms= 1.06271E-03 4.28527E-04 (free atoms)
 -0.00000000000000E+00 -3.62203149497024E-10  4.97910422752706E-04
 -0.00000000000000E+00  7.48897360132603E-10 -1.06270968025549E-03
 -0.00000000000000E+00 -7.73388421271157E-10 -2.16840434497101E-20
 -0.00000000000000E+00  7.48897360132603E-10  1.06270968025549E-03
 -0.00000000000000E+00 -3.62203149497024E-10 -4.97910422752706E-04
 Reduced forces (fred)
 -1.35927433140810E-09  1.35927433140810E-09 -1.30798917830975E-02
  2.81045860562264E-09 -2.81045860562264E-09  2.79169243691363E-02
 -2.90236854842908E-09  2.90236854842908E-09  5.69630457169720E-19
  2.81045860562264E-09 -2.81045860562264E-09 -2.79169243691363E-02
 -1.35927433140810E-09  1.35927433140810E-09  1.30798917830975E-02
 Total energy (etotal) [Ha]= -1.04541432482074E+01

 Difference of energy with previous step (new-old):
           Absolute (Ha)=-5.14531E-06
           Relative     =-4.92179E-07

--- Iteration: ( 5/10) Internal Cycle: (1/1)
--------------------------------------------------------------------------------

---SELF-CONSISTENT-FIELD CONVERGENCE--------------------------------------------

     iter   Etot(hartree)      deltaE(h)  residm     vres2    diffor    maxfor
 ETOT  1  -10.454135533860    -1.045E+01 8.878E-08 4.951E-02 1.067E-04 9.560E-04
 ETOT  2  -10.454148652390    -1.312E-05 1.279E-08 1.158E-03 7.214E-05 8.838E-04
 ETOT  3  -10.454148896505    -2.441E-07 4.056E-08 1.157E-05 8.509E-06 8.923E-04
 ETOT  4  -10.454148899022    -2.517E-09 3.463E-09 2.587E-08 4.753E-07 8.919E-04

 At SCF step    4, forces are converged : 
  for the second time, max diff in force=  4.753E-07 < toldff=  5.000E-05

 Cartesian components of stress tensor (hartree/bohr^3)
  sigma(1 1)=  1.45424717E-04  sigma(3 2)=  0.00000000E+00
  sigma(2 2)=  1.45424717E-04  sigma(3 1)=  0.00000000E+00
  sigma(3 3)=  1.63252482E-05  sigma(2 1)=  0.00000000E+00

 Integrated electronic density in atomic spheres:
 ------------------------------------------------
 Atom  Sphere_radius  Integrated_density
    1        2.00000          0.91376625
    2        2.00000          0.93522583
    3        2.00000          0.93551396
    4        2.00000          0.92490058
    5        2.00000          0.89222004

---OUTPUT-----------------------------------------------------------------------

 Cartesian coordinates (xcart) [bohr]
  0.00000000000000E+00 -5.55490176408304E-09 -1.91883787261642E-01
  0.00000000000000E+00  3.75279540771226E+00  3.65570819104743E+00
  0.00000000000000E+00 -4.31468419956304E-09  7.50559090000000E+00
  0.00000000000000E+00  3.75279540771226E+00  1.13554736089526E+01
 -4.13590306276514E-25 -5.55490176408304E-09  1.52030655872616E+01
 Reduced coordinates (xred)
  7.40101857147989E-10 -7.40101857147989E-10 -7.30441346298424E-03
 -4.99999994365835E-01  4.99999994365835E-01  1.39161335663123E-01
  5.74862693297477E-10 -5.74862693297477E-10  2.85714285714286E-01
 -4.99999994365835E-01  4.99999994365835E-01  4.32267235765449E-01
  7.40101857147989E-10 -7.40101857147989E-10  5.78732984891555E-01
 Cartesian forces (fcart) [Ha/bohr]; max,rms= 8.91860E-04 3.80093E-04 (free atoms)
  3.10192729707385E-26 -3.49847171376998E-10  5.36766232149244E-04
  3.10192729707385E-26  6.79259017610868E-10 -8.91859808787463E-04
 -7.23783035983899E-26 -6.58823692467739E-10  2.16840434497101E-20
 -2.06795153138257E-26  6.79259017610868E-10  8.91859808787463E-04
  3.10192729707385E-26 -3.49847171376998E-10 -5.36766232149244E-04
 Reduced forces (fred)
 -1.31290487293897E-09  1.31290487293897E-09 -1.41006171160633E-02
  2.54912015066153E-09 -2.54912015066153E-09  2.34287720271882E-02
 -2.47243055544513E-09  2.47243055544513E-09 -5.69630457169720E-19
  2.54912015066153E-09 -2.54912015066153E-09 -2.34287720271882E-02
 -1.31290487293897E-09  1.31290487293897E-09  1.41006171160633E-02
 Total energy (etotal) [Ha]= -1.04541488990221E+01

 Difference of energy with previous step (new-old):
           Absolute (Ha)=-5.65081E-06
           Relative     =-5.40533E-07

--- Iteration: ( 6/10) Internal Cycle: (1/1)
--------------------------------------------------------------------------------

---SELF-CONSISTENT-FIELD CONVERGENCE--------------------------------------------

     iter   Etot(hartree)      deltaE(h)  residm     vres2    diffor    maxfor
 ETOT  1  -10.454149723966    -1.045E+01 7.802E-09 1.651E-02 3.212E-04 5.706E-04
 ETOT  2  -10.454156934265    -7.210E-06 2.377E-09 2.593E-04 5.879E-05 5.119E-04
 ETOT  3  -10.454157014205    -7.994E-08 7.478E-09 1.795E-06 6.118E-06 5.180E-04
 ETOT  4  -10.454157014659    -4.546E-10 2.704E-10 1.751E-08 4.034E-07 5.176E-04

 At SCF step    4, forces are converged : 
  for the second time, max diff in force=  4.034E-07 < toldff=  5.000E-05

 Cartesian components of stress tensor (hartree/bohr^3)
  sigma(1 1)=  1.46355298E-04  sigma(3 2)=  0.00000000E+00
  sigma(2 2)=  1.46355298E-04  sigma(3 1)=  0.00000000E+00
  sigma(3 3)=  1.82701706E-05  sigma(2 1)=  0.00000000E+00

 Integrated electronic density in atomic spheres:
 ------------------------------------------------
 Atom  Sphere_radius  Integrated_density
    1        2.00000          0.91457808
    2        2.00000          0.94489485
    3        2.00000          0.93420026
    4        2.00000          0.92432874
    5        2.00000          0.90965856

---OUTPUT-----------------------------------------------------------------------

 Cartesian coordinates (xcart) [bohr]
  8.27180612553028E-25 -4.41168764145260E-09 -1.98362439359854E-01
  0.00000000000000E+00  3.75279541161289E+00  3.64546425456223E+00
  0.00000000000000E+00 -1.44023677057128E-08  7.50559090000000E+00
  0.00000000000000E+00  3.75279541161289E+00  1.13657175454378E+01
 -2.48154183765908E-24 -4.41168764145260E-09  1.52095442393598E+01
 Reduced coordinates (xred)
  5.87786851192836E-10 -5.87786851192836E-10 -7.55103541204785E-03
 -4.99999994885531E-01  4.99999994885531E-01  1.38771381156573E-01
  1.91888525468565E-09 -1.91888525468565E-09  2.85714285714286E-01
 -4.99999994885531E-01  4.99999994885531E-01  4.32657190271998E-01
  5.87786851192836E-10 -5.87786851192836E-10  5.78979606840619E-01
 Cartesian forces (fcart) [Ha/bohr]; max,rms= 5.17565E-04 2.47620E-04 (free atoms)
  5.16987882845642E-27 -3.20719822354634E-10  4.38172005053063E-04
  5.16987882845642E-27  5.31628576594280E-10 -5.17565292413800E-04
 -2.06795153138257E-26 -4.21817508479292E-10 -0.00000000000000E+00
  5.16987882845642E-27  5.31628576594280E-10  5.17565292413800E-04
  5.16987882845642E-27 -3.20719822354634E-10 -4.38172005053063E-04
 Reduced forces (fred)
 -1.20359589005728E-09  1.20359589005728E-09 -1.15105893481636E-02
  1.99509330333299E-09 -1.99509330333299E-09  1.35962167211390E-02
 -1.58299482655142E-09  1.58299482655142E-09  0.00000000000000E+00
  1.99509330333299E-09 -1.99509330333299E-09 -1.35962167211390E-02
 -1.20359589005728E-09  1.20359589005728E-09  1.15105893481636E-02
 Total energy (etotal) [Ha]= -1.04541570146594E+01

 Difference of energy with previous step (new-old):
           Absolute (Ha)=-8.11564E-06
           Relative     =-7.76307E-07

--- Iteration: ( 7/10) Internal Cycle: (1/1)
--------------------------------------------------------------------------------

---SELF-CONSISTENT-FIELD CONVERGENCE--------------------------------------------

     iter   Etot(hartree)      deltaE(h)  residm     vres2    diffor    maxfor
 ETOT  1  -10.454160225089    -1.045E+01 1.299E-08 3.131E-03 3.588E-04 2.317E-04
 ETOT  2  -10.454162590595    -2.366E-06 4.402E-10 6.210E-05 3.078E-05 2.009E-04
 ETOT  3  -10.454162612042    -2.145E-08 6.225E-10 1.494E-07 3.031E-06 2.040E-04

 At SCF step    3, forces are converged : 
  for the second time, max diff in force=  3.031E-06 < toldff=  5.000E-05

 Cartesian components of stress tensor (hartree/bohr^3)
  sigma(1 1)=  1.46084782E-04  sigma(3 2)=  0.00000000E+00
  sigma(2 2)=  1.46084782E-04  sigma(3 1)=  0.00000000E+00
  sigma(3 3)=  1.73980994E-05  sigma(2 1)=  0.00000000E+00

 Integrated electronic density in atomic spheres:
 ------------------------------------------------
 Atom  Sphere_radius  Integrated_density
    1        2.00000          0.91488963
    2        2.00000          0.92423830
    3        2.00000          0.93349978
    4        2.00000          0.90301974
    5        2.00000          0.89335063

---OUTPUT-----------------------------------------------------------------------

 Cartesian coordinates (xcart) [bohr]
[...]
    4      0.00000000000000     1.98589380232417     6.01756586171446
    5     -0.00000000000000    -0.00000000154340     8.04704382272863

 cartesian forces (hartree/bohr) at end:
    1     -0.00000000000000    -0.00000000029384     0.00020397150506
    2     -0.00000000000000     0.00000000039438    -0.00012980262328
    3     -0.00000000000000    -0.00000000020108    -0.00000000000000
    4      0.00000000000000     0.00000000039438     0.00012980262328
    5     -0.00000000000000    -0.00000000029384    -0.00020397150506
 frms,max,avg= 8.8282196E-05 2.0397151E-04   0.000E+00  5.402E-14  0.000E+00 h/b

 cartesian forces (eV/Angstrom) at end:
    1     -0.00000000000000    -0.00000001510999     0.01048863562243
    2     -0.00000000000000     0.00000002027985    -0.00667471869702
    3     -0.00000000000000    -0.00000001033972    -0.00000000000000
    4      0.00000000000000     0.00000002027985     0.00667471869702
    5     -0.00000000000000    -0.00000001510999    -0.01048863562243
 frms,max,avg= 4.5396527E-03 1.0488636E-02   0.000E+00  2.778E-12  0.000E+00 e/A
 length scales=  7.505590900000  7.505590900000  7.505590900000 bohr
              =  3.971787641281  3.971787641281  3.971787641281 angstroms
 prteigrs : about to open file tbase4_7o_DS3_EIG
 Fermi (or HOMO) energy (hartree) =   0.16782   Average Vxc (hartree)=  -0.29444
 Eigenvalues (hartree) for nkpt=   8  k points:
 kpt#   1, nband= 11, wtk=  0.12500, kpt= -0.1250  0.0000  0.0000 (reduced coord)
  -0.22746   -0.19441   -0.13898   -0.06710    0.02100    0.09524    0.19197    0.26115
   0.28920    0.32563    0.33775
      occupation numbers for kpt#   1
   2.00000    2.00000    2.00000    2.00000    2.00001    2.06073    0.12671    0.00207
   0.00012    0.00000    0.00000
 prteigrs : prtvol=0 or 1, do not print more k-points.


--------------------------------------------------------------------------------
 Components of total free energy (in Hartree) :

    Kinetic energy  =  4.12802532814994E+00
    Hartree energy  =  7.04845110457634E+00
    XC energy       = -3.92733134853626E+00
    Ewald energy    = -4.89853816587136E+00
    PspCore energy  =  1.38160115627589E-01
    Loc. psp. energy= -1.52066750362996E+01
    NL   psp  energy=  2.26627335333227E+00
    >>>>> Internal E= -1.04516346490211E+01

    -kT*entropy     = -2.52796302103852E-03
    >>>>>>>>> Etotal= -1.04541626120421E+01

 Other information on the energy :
    Total energy(eV)= -2.84472231771139E+02 ; Band energy (Ha)=   1.6827976075E-01
--------------------------------------------------------------------------------
 rms coord change=  3.1402E-03   atom, delta coord (reduced):
     1        0.000000000389     -0.000000000389     -0.007443106913
     2       -0.000000002050      0.000000002050     -0.004307838812
     3        0.000000003323     -0.000000003323      0.000000000000
     4       -0.000000002050      0.000000002050      0.004307842618
     5        0.000000000389     -0.000000000389      0.007443106913

 Cartesian components of stress tensor (hartree/bohr^3)
  sigma(1 1)=  1.46084782E-04  sigma(3 2)=  0.00000000E+00
  sigma(2 2)=  1.46084782E-04  sigma(3 1)=  0.00000000E+00
  sigma(3 3)=  1.73980994E-05  sigma(2 1)=  0.00000000E+00

-Cartesian components of stress tensor (GPa)         [Pressure= -3.0359E+00 GPa]
- sigma(1 1)=  4.29796196E+00  sigma(3 2)=  0.00000000E+00
- sigma(2 2)=  4.29796196E+00  sigma(3 1)=  0.00000000E+00
- sigma(3 3)=  5.11869670E-01  sigma(2 1)=  0.00000000E+00

== END DATASET(S) ==============================================================
================================================================================
  
 -outvars: echo values of variables after computation  --------
            acell      7.5055909000E+00  7.5055909000E+00  7.5055909000E+00 Bohr
              amu      2.69815390E+01
             ecut      6.00000000E+00 Hartree
           etotal1    -6.2546989923E+00
           etotal2    -8.3565588250E+00
           etotal3    -1.0454162612E+01
            fcart1    -0.0000000000E+00  6.0285266031E-10 -2.0683761800E-04
                      -0.0000000000E+00 -1.2057053206E-09 -0.0000000000E+00
                      -0.0000000000E+00  6.0285266031E-10  2.0683761800E-04
            fcart2    -2.0679515314E-25 -1.2655304065E-09  1.3674551925E-04
                      -2.0679515314E-25  4.8862345405E-09 -7.9541855715E-05
                       6.2038545941E-25 -4.8862345405E-09  7.9541855715E-05
                      -2.0679515314E-25  1.2655304065E-09 -1.3674551925E-04
            fcart3    -0.0000000000E+00 -2.9384252617E-10  2.0397150506E-04
                      -2.5849394142E-26  3.9438034254E-10 -1.2980262328E-04
                      -0.0000000000E+00 -2.0107563274E-10 -0.0000000000E+00
                       2.5849394142E-26  3.9438034254E-10  1.2980262328E-04
                      -0.0000000000E+00 -2.9384252617E-10 -2.0397150506E-04
-          fftalg         312
           ionmov           2
           iprcel          45
           jdtset        1    2    3
              kpt     -1.25000000E-01  0.00000000E+00  0.00000000E+00
                      -3.75000000E-01  0.00000000E+00  0.00000000E+00
                      -2.50000000E-01  1.25000000E-01  0.00000000E+00
                       5.00000000E-01  1.25000000E-01  0.00000000E+00
                      -3.75000000E-01  2.50000000E-01  0.00000000E+00
                       2.50000000E-01  1.25000000E-01  0.00000000E+00
                       3.75000000E-01  2.50000000E-01  0.00000000E+00
                       5.00000000E-01  3.75000000E-01  0.00000000E+00
         kptrlatt        4    4    0     -4    4    0      0    0    1
          kptrlen      3.00223636E+01
P           mkmem           2
            natom1          3
            natom2          4
            natom3          5
            nband1          7
            nband2          8
            nband3         11
           ndtset           3
            ngfft1         12      12      45
            ngfft2         12      12      50
            ngfft3         12      12      60
             nkpt           8
            nstep          10
             nsym           4
            ntime          10
           ntypat           1
              occ1     2.000000  2.000000  2.000000  2.133185  0.002911  0.000194
                       0.000000
                       2.000000  2.000000  2.000574  2.017131  2.122032  0.101385
                       0.005174
                       2.000000  2.000000  2.000123  1.490520  0.863088  0.004847
                       0.001182
                       2.000000  2.000000  2.000296  2.000468  1.674766  0.565872
                       0.002935
                       2.000000  2.000000  2.034879  2.141674  1.009604  0.004667
                       0.002528
                       2.000000  2.000000  2.000123  1.490520  0.863088  0.004847
                       0.001182
                       2.000000  2.000000  2.034879  2.141674  1.009604  0.004667
                       0.002528
                       2.000340  2.000604  2.130585  2.129691  0.000717  0.001598
                       0.003314
              occ2     2.000000  2.000000  2.000000  2.000001  2.041038  0.004533
                       0.000568  0.000260
                       2.000000  2.000000  2.000000  2.000129  2.025460  2.052214
                       1.345554  0.784920
                       2.000000  2.000000  2.000000  2.000922  2.092807  1.303630
                       0.030862  0.001512
                       2.000000  2.000000  2.000000  2.000000  2.011264  2.011264
                       0.606577  0.606577
                       2.000000  2.000000  2.000067  2.014415  2.139006  2.044547
                       0.103947  0.005687
                       2.000000  2.000000  2.000000  2.000922  2.092807  1.303630
                       0.030862  0.001512
                       2.000000  2.000000  2.000067  2.014415  2.139006  2.044547
                       0.103947  0.005687
                       2.000100  2.000100  2.021828  2.021828  1.486873  1.486873
                       0.008618  0.008618
              occ3     2.000000  2.000000  2.000000  2.000000  2.000009  2.060734
                       0.126709  0.002070  0.000124  0.000000  0.000000
                       2.000000  2.000000  2.000000  2.000003  2.000013  2.001383
                       2.083503  2.128292  0.825903  0.254079  0.002268
                       2.000000  2.000000  2.000000  2.000000  2.003156  2.020909
                       1.841288  0.602721  0.001977  0.005120  0.000064
                       2.000000  2.000000  2.000000  2.000000  2.000021  2.000029
                       2.051839  2.088768  0.622355  0.057886  0.005141
                       2.000000  2.000000  2.000000  2.001600  2.003160  2.055757
                       1.892076  1.615208  0.008976  0.001216  0.004852
                       2.000000  2.000000  2.000000  2.000000  2.003156  2.020909
                       1.841288  0.602721  0.001977  0.005120  0.000064
                       2.000000  2.000000  2.000000  2.001600  2.003160  2.055757
                       1.892076  1.615208  0.008976  0.001216  0.004852
                       2.000009  2.000011  2.000764  2.001459  2.099157  2.116093
                       0.686996  0.443003  0.130770  0.093885  0.000565
           occopt           4
        optforces           1
            rprim1     5.0000000000E-01 -5.0000000000E-01  0.0000000000E+00
                       5.0000000000E-01  5.0000000000E-01  0.0000000000E+00
                       0.0000000000E+00  0.0000000000E+00  2.5000000000E+00
            rprim2     5.0000000000E-01 -5.0000000000E-01  0.0000000000E+00
                       5.0000000000E-01  5.0000000000E-01  0.0000000000E+00
                       0.0000000000E+00  0.0000000000E+00  3.0000000000E+00
            rprim3     5.0000000000E-01 -5.0000000000E-01  0.0000000000E+00
                       5.0000000000E-01  5.0000000000E-01  0.0000000000E+00
                       0.0000000000E+00  0.0000000000E+00  3.5000000000E+00
           shiftk      5.00000000E-01  5.00000000E-01  0.00000000E+00
          spgroup1         38
          spgroup2         12
          spgroup3         38
           strten1     1.7072682290E-04  1.7072682307E-04 -1.0451801261E-06
                       0.0000000000E+00  0.0000000000E+00  0.0000000000E+00
           strten2     1.8838479459E-04  1.8838479459E-04  6.4042726673E-05
                       8.0061196523E-12  0.0000000000E+00  0.0000000000E+00
           strten3     1.4608478233E-04  1.4608478230E-04  1.7398099375E-05
                       0.0000000000E+00  0.0000000000E+00  0.0000000000E+00
           symrel1     1  0  0   0  1  0   0  0  1       1  0  0   0  1  0   0  0 -1
                       0 -1  0  -1  0  0   0  0 -1       0 -1  0  -1  0  0   0  0  1
           symrel2     1  0  0   0  1  0   0  0  1      -1  0  0   0 -1  0   0  0 -1
                       0 -1  0  -1  0  0   0  0  1       0  1  0   1  0  0   0  0 -1
           symrel3     1  0  0   0  1  0   0  0  1       1  0  0   0  1  0   0  0 -1
                       0 -1  0  -1  0  0   0  0 -1       0 -1  0  -1  0  0   0  0  1
            tnons1     0.0000000  0.0000000  0.0000000     0.0000000  0.0000000  0.4000000
                       0.0000000  0.0000000  0.4000000     0.0000000  0.0000000  0.0000000
            tnons2     0.0000000  0.0000000  0.0000000     0.5000000  0.5000000  0.5000000
                       0.0000000  0.0000000  0.0000000     0.5000000  0.5000000  0.5000000
            tnons3     0.0000000  0.0000000  0.0000000     0.0000000  0.0000000 -0.4285714
                       0.0000000  0.0000000 -0.4285714     0.0000000  0.0000000  0.0000000
           toldff      5.00000000E-05
           tolmxf      5.00000000E-04
           tsmear      4.00000000E-02 Hartree
            typat1     1  1  1
            typat2     1  1  1  1
            typat3     1  1  1  1  1
              wtk        0.12500    0.12500    0.12500    0.12500    0.12500    0.12500
                         0.12500    0.12500
           xangst1     0.0000000000E+00 -2.1427692408E-08 -8.8785905993E-02
                       0.0000000000E+00  1.9858938370E+00  1.9858938206E+00
                       0.0000000000E+00 -2.1427692408E-08  4.0605735473E+00
           xangst2     0.0000000000E+00 -1.8883766874E-07 -1.7582815051E-01
                       0.0000000000E+00  1.9858935848E+00  1.9182559504E+00
                       0.0000000000E+00  2.0941468137E-07  4.0394254851E+00
                       0.0000000000E+00  1.9858939830E+00  6.1335095860E+00
           xangst3     8.7545025510E-25 -1.5434003210E-09 -1.0346854017E-01
                       0.0000000000E+00  1.9858938023E+00  1.9260094208E+00
                       0.0000000000E+00 -1.3198730976E-08  3.9717876413E+00
                       0.0000000000E+00  1.9858938023E+00  6.0175658617E+00
                      -2.0791943559E-24 -1.5434003210E-09  8.0470438227E+00
            xcart1     0.0000000000E+00 -4.0492470312E-08 -1.6778104679E-01
                       0.0000000000E+00  3.7527954810E+00  3.7527954500E+00
                       0.0000000000E+00 -4.0492470312E-08  7.6733719468E+00
            xcart2     0.0000000000E+00 -3.5685147749E-07 -3.3226705091E-01
                       0.0000000000E+00  3.7527950043E+00  3.6249783991E+00
                       0.0000000000E+00  3.9573639600E-07  7.6334079009E+00
                       0.0000000000E+00  3.7527957569E+00  1.1590653351E+01
            xcart3     1.6543612251E-24 -2.9166039201E-09 -1.9552720429E-01
                       0.0000000000E+00  3.7527954154E+00  3.6396303348E+00
                       0.0000000000E+00 -2.4941986847E-08  7.5055909000E+00
                       0.0000000000E+00  3.7527954154E+00  1.1371551465E+01
                      -3.9291079096E-24 -2.9166039201E-09  1.5206709004E+01
             xred1     5.3949743400E-09 -5.3949743400E-09 -8.9416569074E-03
                      -5.0000000413E-01  5.0000000413E-01  2.0000000000E-01
                       5.3949743400E-09 -5.3949743400E-09  4.0894165691E-01
             xred2     4.7544754603E-08 -4.7544754603E-08 -1.4756424259E-02
                      -4.9999994061E-01  4.9999994061E-01  1.6099014043E-01
                      -5.2725548364E-08  5.2725548364E-08  3.3900985735E-01
                      -5.0000004088E-01  5.0000004088E-01  5.1475642204E-01
             xred3     3.8859084634E-10 -3.8859084634E-10 -7.4431069125E-03
                      -4.9999999539E-01  4.9999999539E-01  1.3854930214E-01
                       3.3231210146E-09 -3.3231210146E-09  2.8571428571E-01
                      -4.9999999539E-01  4.9999999539E-01  4.3287926929E-01
                       3.8859084634E-10 -3.8859084634E-10  5.7887167834E-01
            znucl       13.00000

================================================================================


- Timing analysis has been suppressed with timopt=0



================================================================================

 Suggested references for the acknowledgment of ABINIT usage.

 The users of ABINIT have little formal obligations with respect to the ABINIT group
 (those specified in the GNU General Public License, http://www.gnu.org/copyleft/gpl.txt).
 However, it is common practice in the scientific literature,
 to acknowledge the efforts of people that have made the research possible.
 In this spirit, please find below suggested citations of work written by ABINIT developers,
 corresponding to implementations inside of ABINIT that you have used in the present run.
 Note also that it will be of great value to readers of publications presenting these results,
 to read papers enabling them to understand the theoretical formalism and details
 of the ABINIT implementation.
 For information on why they are suggested, see also https://docs.abinit.org/theory/acknowledgments.
-
- [1] Preconditioning of self-consistent-field cycles in density functional theory : the extrapolar method
- P.-M. Anglade, X. Gonze, Phys. Rev. B 78, 045126 (2008).
- Comment : to be cited in case the extrapolar conditioner is used, i.e. non-vanishing iprcel.
- DOI and bibtex : see https://docs.abinit.org/theory/bibliography/#anglade2008
-
- [2] Recent developments in the ABINIT software package.
- Computer Phys. Comm. 205, 106 (2016).
- X.Gonze, F.Jollet, F.Abreu Araujo, D.Adams, B.Amadon, T.Applencourt,
- C.Audouze, J.-M.Beuken, J.Bieder, A.Bokhanchuk, E.Bousquet, F.Bruneval
- D.Caliste, M.Cote, F.Dahm, F.Da Pieve, M.Delaveau, M.Di Gennaro,
- B.Dorado, C.Espejo, G.Geneste, L.Genovese, A.Gerossier, M.Giantomassi,
- Y.Gillet, D.R.Hamann, L.He, G.Jomard, J.Laflamme Janssen, S.Le Roux,
- A.Levitt, A.Lherbier, F.Liu, I.Lukacevic, A.Martin, C.Martins,
- M.J.T.Oliveira, S.Ponce, Y.Pouillon, T.Rangel, G.-M.Rignanese,
- A.H.Romero, B.Rousseau, O.Rubel, A.A.Shukri, M.Stankovski, M.Torrent,
- M.J.Van Setten, B.Van Troeye, M.J.Verstraete, D.Waroquier, J.Wiktor,
- B.Xu, A.Zhou, J.W.Zwanziger.
- Comment : the fourth generic paper describing the ABINIT project.
- Note that a version of this paper, that is not formatted for Computer Phys. Comm. 
- is available at https://www.abinit.org/about/ABINIT16.pdf .
- The licence allows the authors to put it on the Web.
- DOI and bibtex : see https://docs.abinit.org/theory/bibliography/#gonze2016
-
- [3] Ab initio pseudopotentials for electronic structure calculations of poly-atomic systems, 
- using density-functional theory.
- M. Fuchs, M. Scheffler, Comput. Phys. Commun. 119, 67 (1999).
- Comment : Some pseudopotential generated using the FHI code were used.
- DOI and bibtex : see https://docs.abinit.org/theory/bibliography/#fuchs1999
-
- [4] ABINIT : First-principles approach of materials and nanosystem properties.
- Computer Phys. Comm. 180, 2582-2615 (2009).
- X. Gonze, B. Amadon, P.-M. Anglade, J.-M. Beuken, F. Bottin, P. Boulanger, F. Bruneval,
- D. Caliste, R. Caracas, M. Cote, T. Deutsch, L. Genovese, Ph. Ghosez, M. Giantomassi
- S. Goedecker, D.R. Hamann, P. Hermet, F. Jollet, G. Jomard, S. Leroux, M. Mancini, S. Mazevet,
- M.J.T. Oliveira, G. Onida, Y. Pouillon, T. Rangel, G.-M. Rignanese, D. Sangalli, R. Shaltaf,
- M. Torrent, M.J. Verstraete, G. Zerah, J.W. Zwanziger
- Comment : the third generic paper describing the ABINIT project.
- Note that a version of this paper, that is not formatted for Computer Phys. Comm. 
- is available at https://www.abinit.org/about/ABINIT_CPC_v10.pdf .
- The licence allows the authors to put it on the Web.
- DOI and bibtex : see https://docs.abinit.org/theory/bibliography/#gonze2009
-
- [5] A brief introduction to the ABINIT software package.
- Z. Kristallogr. 220, 558-562 (2005).
- X. Gonze, G.-M. Rignanese, M. Verstraete, J.-M. Beuken, Y. Pouillon, R. Caracas, F. Jollet,
- M. Torrent, G. Zerah, M. Mikami, Ph. Ghosez, M. Veithen, J.-Y. Raty, V. Olevano, F. Bruneval,
- L. Reining, R. Godby, G. Onida, D.R. Hamann, and D.C. Allan.
- Comment : the second generic paper describing the ABINIT project. Note that this paper
- should be cited especially if you are using the GW part of ABINIT, as several authors
- of this part are not in the list of authors of the first or third paper.
- The .pdf of the latter paper is available at https://www.abinit.org/about/zfk_0505-06_558-562.pdf.
- Note that it should not redistributed (Copyright by Oldenburg Wissenshaftverlag,
- the licence allows the authors to put it on the Web).
- DOI and bibtex : see https://docs.abinit.org/theory/bibliography/#gonze2005
-
- Proc.   0 individual time (sec): cpu=         23.2  wall=         23.5

================================================================================

 Calculation completed.
.Delivered   4 WARNINGs and   0 COMMENTs to log file.
+Overall time at end (sec) : cpu=         93.7  wall=         94.0
