  ABINIT 8.11.13
  
  Give name for formatted input file: 
all.in
  Give name for formatted output file:
all.out
  Give root name for generic input files:
alli
  Give root name for generic output files:
allo
  Give root name for generic temporary files:
all
 
--- !COMMENT
src_file: m_dtfil.F90
src_line: 1450
message: |
    Output file: all.out already exists.
...
 
 
--- !COMMENT
src_file: m_dtfil.F90
src_line: 1474
message: |
    Renaming old all.out to all.out0002
...
 

.Version 8.11.13 of ABINIT 
.(MPI version, prepared for a x86_64_linux_intel14.0 computer) 

.Copyright (C) 1998-2019 ABINIT group . 
 ABINIT comes with ABSOLUTELY NO WARRANTY.
 It is free software, and you are welcome to redistribute it
 under certain conditions (GNU General Public License,
 see ~abinit/COPYING or http://www.gnu.org/copyleft/gpl.txt).

 ABINIT is a project of the Universite Catholique de Louvain,
 Corning Inc. and other collaborators, see ~abinit/doc/developers/contributors.txt .
 Please read https://docs.abinit.org/theory/acknowledgments for suggested
 acknowledgments of the ABINIT effort.
 For more information, see https://www.abinit.org .

.Starting date : Wed  8 Jan 2020.
- ( at 16h52 )
  
 
 ++++++++++++++++++++++++++++++++++++++++++++++++++++++++++++++++++++++++++++++
 
 === Build Information === 
  Version       : 8.11.13
  Build target  : x86_64_linux_intel14.0
  Build date    : 20191206
 
 === Compiler Suite === 
  C compiler       : intel14.0
  C++ compiler     : gnu14.0
  Fortran compiler : intel14.0
  CFLAGS           :  -g -O2
  CXXFLAGS         :  -g -O2 -mtune=native -march=native
  FCFLAGS          :  -g -extend-source -nofpscomp
  FC_LDFLAGS       :    -static-intel -static-libgcc
 
 === Optimizations === 
  Debug level        : basic
  Optimization level : standard
  Architecture       : intel_xeon
 
 === Multicore === 
  Parallel build : yes
  Parallel I/O   : yes
  openMP support : no
  GPU support    : no
 
 === Connectors / Fallbacks === 
  Connectors on : yes
  Fallbacks on  : yes
  DFT flavor    : libxc-fallback
  FFT flavor    : fftw3
  LINALG flavor : mkl
  TIMER flavor  : abinit
  TRIO flavor   : netcdf
 
 === Experimental features === 
  Exports             : no
  GW double-precision : yes
 
 ++++++++++++++++++++++++++++++++++++++++++++++++++++++++++++++++++++++++++++++
 

 ++++++++++++++++++++++++++++++++++++++++++++++++++++++++++++++++++++++++++++++
 Default optimizations:
   -O3


 Optimizations for 43_ptgroups:
   -O0


 ++++++++++++++++++++++++++++++++++++++++++++++++++++++++++++++++++++++++++++++


 ++++++++++++++++++++++++++++++++++++++++++++++++++++++++++++++++++++++++++++++
 CPP options activated during the build:

                  CC_INTEL                   CXX_GNU                  FC_INTEL
 
 HAVE_FC_ALLOCATABLE_DT...             HAVE_FC_ASYNC  HAVE_FC_COMMAND_ARGUMENT
 
        HAVE_FC_CONTIGUOUS           HAVE_FC_CPUTIME             HAVE_FC_ETIME
 
              HAVE_FC_EXIT             HAVE_FC_FLUSH             HAVE_FC_GAMMA
 
            HAVE_FC_GETENV            HAVE_FC_GETPID   HAVE_FC_IEEE_ARITHMETIC
 
   HAVE_FC_IEEE_EXCEPTIONS             HAVE_FC_IOMSG     HAVE_FC_ISO_C_BINDING
 
  HAVE_FC_ISO_FORTRAN_2008        HAVE_FC_LONG_LINES        HAVE_FC_MOVE_ALLOC
 
  HAVE_FC_ON_THE_FLY_SHAPE           HAVE_FC_PRIVATE         HAVE_FC_PROTECTED
 
           HAVE_FC_SHIFTLR         HAVE_FC_STREAM_IO            HAVE_FC_SYSTEM
 
                  HAVE_FFT            HAVE_FFT_FFTW3              HAVE_FFT_MPI
 
           HAVE_FFT_SERIAL               HAVE_GW_DPC        HAVE_LIBPAW_ABINIT
 
      HAVE_LIBTETRA_ABINIT                HAVE_LIBXC               HAVE_LINALG
 
         HAVE_LINALG_AXPBY        HAVE_LINALG_GEMM3M  HAVE_LINALG_MKL_IMATCOPY
 
   HAVE_LINALG_MKL_OMATADD  HAVE_LINALG_MKL_OMATCOPY   HAVE_LINALG_MKL_THREADS
 
        HAVE_LINALG_SERIAL                  HAVE_MPI                 HAVE_MPI2
 
       HAVE_MPI_IALLREDUCE        HAVE_MPI_IALLTOALL       HAVE_MPI_IALLTOALLV
 
           HAVE_MPI_IBCAST         HAVE_MPI_IGATHERV        HAVE_MPI_INTEGER16
 
               HAVE_MPI_IO HAVE_MPI_TYPE_CREATE_S...               HAVE_NETCDF
 
           HAVE_NETCDF_MPI                HAVE_NUMPY             HAVE_OS_LINUX
 
         HAVE_TIMER_ABINIT                  HAVE_XML              USE_MACROAVE
 
 ++++++++++++++++++++++++++++++++++++++++++++++++++++++++++++++++++++++++++++++

- input  file    -> all.in
- output file    -> all.out
- root for input  files -> alli
- root for output files -> allo
 
Netcdf library supports MPI-IO
-instrng: 85 lines of input have been read from file all.in
 

 Please give name of formatted atomic psp file
 For atom type 1, psp file is /CECI/home/ucl/naps/jovbever/.PsP/Si/Si.psp8
  read the values zionpsp=  4.0 , pspcod=   8 , lmax=   2
 
 inpspheads: deduce mpsang = 3, n1xccc = 2501.

======================================================= 
invars1m : enter jdtset= 1
 
 symlatt: the Bravais lattice is cF (face-centered cubic)
  xred   is defined in input file
 ingeo: takes atomic coordinates from input array xred
 
 symlatt: the Bravais lattice is cF (face-centered cubic)
 
 symlatt: the Bravais lattice is cF (face-centered cubic)
 symspgr: spgroup= 227  Fd -3 m   (=Oh^7)
 symspgr: optical characteristics = isotropic

======================================================= 
invars1m : enter jdtset= 2
 
 symlatt: the Bravais lattice is cF (face-centered cubic)
  xred   is defined in input file
 ingeo: takes atomic coordinates from input array xred
 
 symlatt: the Bravais lattice is cF (face-centered cubic)
 
 symlatt: the Bravais lattice is cF (face-centered cubic)
 symspgr: spgroup= 227  Fd -3 m   (=Oh^7)
 symspgr: optical characteristics = isotropic
 
--- !WARNING
src_file: m_mpinfo.F90
src_line: 2292
message: |
    nkpt*nsppol (28) is not a multiple of nproc_kpt (10)
    The k-point parallelisation is inefficient. (Ignore this warning if this is not a GS run)
...
 
 For input ecut=  4.410000E+01 best grid ngfft=      45      45      45
       max ecut=  4.471415E+01
 
 ==== FFT mesh ====
  FFT mesh divisions ........................    45   45   45
  Augmented FFT divisions ...................    45   45   45
  FFT algorithm .............................   312
  FFT cache size ............................    16
 getmpw: optimal value of mpw= 3882
 For input ecut=  4.410000E+01 best grid ngfft=      45      45      45
       max ecut=  4.471415E+01
 
 ==== FFT mesh ====
  FFT mesh divisions ........................    45   45   45
  Augmented FFT divisions ...................    45   45   45
  FFT algorithm .............................   312
  FFT cache size ............................    16
 getmpw: optimal value of mpw= 3882
 getmpw: optimal value of mpw= 3882
 
 DATASET    1 : space group Fd -3 m (#227); Bravais cF (face-center cubic)
 
 getdim_nloc : deduce lmnmax  =  18, lnmax  =   6,
                      lmnmaxso=  18, lnmaxso=   6.
memory: analysis of memory needs
================================================================================
 Values of the parameters that define the memory need for DATASET  1.
     intxc =       0    ionmov =       2      iscf =       7    lmnmax =       6
     lnmax =       6     mgfft =      45  mpssoang =       3    mqgrid =    3001
     natom =       2  nloc_mem =       1    nspden =       1   nspinor =       1
    nsppol =       1      nsym =      48    n1xccc =    2501    ntypat =       1
    occopt =       1   xclevel =       2
-    mband =           6        mffmem =           1         mkmem =           3
       mpw =        3882          nfft =       91125          nkpt =          28
================================================================================
P This job should need less than                      31.131 Mbytes of memory.
  Rough estimation (10% accuracy) of disk space for files :
_ WF disk file :      9.953 Mbytes ; DEN or POT disk file :      0.697 Mbytes.
================================================================================
 
 Biggest array : f_fftgr(disk), with     11.1257 MBytes.
 memana : allocated an array of     11.126 Mbytes, for testing purposes.
 memana: allocated      31.131Mbytes, for testing purposes. 
 The job will continue.
 
 DATASET    2 : space group Fd -3 m (#227); Bravais cF (face-center cubic)
 
 getdim_nloc : deduce lmnmax  =  18, lnmax  =   6,
                      lmnmaxso=  18, lnmaxso=   6.
 memorf : analysis of memory needs
================================================================================
 Values of the parameters that define the memory need for DATASET  2 (RF).
     intxc =       0      iscf =      -3    lmnmax =       6     lnmax =       6
     mgfft =      45  mpssoang =       3    mqgrid =    3001     natom =       2
  nloc_mem =       1    nspden =       1   nspinor =       1    nsppol =       1
      nsym =      48    n1xccc =    2501    ntypat =       1    occopt =       1
   xclevel =       2
-    mband =           6        mffmem =           1         mkmem =          44
-   mkqmem =          44        mk1mem =          44           mpw =        3882
      nfft =       91125          nkpt =         432
================================================================================
P This job should need less than                      71.219 Mbytes of memory.
  Rough estimation (10% accuracy) of disk space for files :
_ WF disk file :    153.538 Mbytes ; DEN or POT disk file :      0.697 Mbytes.
================================================================================
 
 Biggest array : cg(disk), with     15.6399 MBytes.
 memana : allocated an array of     15.640 Mbytes, for testing purposes.
 memana: allocated      71.219Mbytes, for testing purposes. 
 The job will continue.
--------------------------------------------------------------------------------
------------- Echo of variables that govern the present computation ------------
--------------------------------------------------------------------------------
-
- outvars: echo of selected default values                                      
-   iomode0 =  0 , fftalg0 =312 , wfoptalg0 =  0
-
- outvars: echo of global parameters not present in the input file              
-  max_nthreads =    0
-
 -outvars: echo values of preprocessed input variables --------
 
 These variables are accessible in NetCDF format (allo_OUT.nc)

            acell      1.0335941857E+01  1.0335941857E+01  1.0335941857E+01 Bohr
              amu      2.80855000E+01
          dilatmx      1.05000000E+00
             ecut      4.00000000E+01 Hartree
           ecutsm      5.00000000E-01 Hartree
-          fftalg         312
           getwfk1          0
           getwfk2         -1
           ionmov           2
             iscf1          7
             iscf2         -3
              ixc          11
           jdtset        1    2
              kpt1    -8.33333333E-02 -1.66666667E-01  0.00000000E+00
                      -8.33333333E-02 -3.33333333E-01  0.00000000E+00
                      -1.66666667E-01 -2.50000000E-01  0.00000000E+00
                      -8.33333333E-02 -2.50000000E-01  8.33333333E-02
                      -8.33333333E-02  5.00000000E-01  0.00000000E+00
                      -1.66666667E-01 -4.16666667E-01  0.00000000E+00
                      -8.33333333E-02 -4.16666667E-01  8.33333333E-02
                      -2.50000000E-01 -3.33333333E-01  0.00000000E+00
                      -1.66666667E-01 -3.33333333E-01  8.33333333E-02
                      -8.33333333E-02 -3.33333333E-01  1.66666667E-01
                      -8.33333333E-02  3.33333333E-01  0.00000000E+00
                      -1.66666667E-01  4.16666667E-01  0.00000000E+00
                      -2.50000000E-01  5.00000000E-01  0.00000000E+00
                      -1.66666667E-01  5.00000000E-01  8.33333333E-02
                      -3.33333333E-01 -4.16666667E-01  0.00000000E+00
                      -2.50000000E-01 -4.16666667E-01  8.33333333E-02
                      -1.66666667E-01 -4.16666667E-01  1.66666667E-01
                      -8.33333333E-02 -4.16666667E-01  2.50000000E-01
                      -8.33333333E-02  1.66666667E-01  0.00000000E+00
                      -1.66666667E-01  2.50000000E-01  0.00000000E+00
                      -2.50000000E-01  3.33333333E-01  0.00000000E+00
                      -3.33333333E-01  4.16666667E-01  0.00000000E+00
                      -4.16666667E-01  5.00000000E-01  0.00000000E+00
                      -3.33333333E-01  5.00000000E-01  8.33333333E-02
                      -2.50000000E-01  5.00000000E-01  1.66666667E-01
                      -8.33333333E-02  0.00000000E+00  0.00000000E+00
                      -2.50000000E-01  0.00000000E+00  0.00000000E+00
                      -4.16666667E-01  0.00000000E+00  0.00000000E+00
              kpt2    -8.33333333E-02 -1.66666667E-01  0.00000000E+00
                      -1.66666667E-01 -8.33333333E-02  0.00000000E+00
                      -8.33333333E-02 -8.33333333E-02  8.33333333E-02
                      -8.33333333E-02 -3.33333333E-01  0.00000000E+00
                      -1.66666667E-01 -2.50000000E-01  0.00000000E+00
                      -8.33333333E-02 -2.50000000E-01  8.33333333E-02
                      -2.50000000E-01 -1.66666667E-01  0.00000000E+00
                      -1.66666667E-01 -1.66666667E-01  8.33333333E-02
                      -8.33333333E-02 -1.66666667E-01  1.66666667E-01
                      -3.33333333E-01 -8.33333333E-02  0.00000000E+00
                      -2.50000000E-01 -8.33333333E-02  8.33333333E-02
                      -1.66666667E-01 -8.33333333E-02  1.66666667E-01
                      -8.33333333E-02 -8.33333333E-02  2.50000000E-01
                      -8.33333333E-02  5.00000000E-01  0.00000000E+00
                      -1.66666667E-01 -4.16666667E-01  0.00000000E+00
                      -8.33333333E-02 -4.16666667E-01  8.33333333E-02
                      -2.50000000E-01 -3.33333333E-01  0.00000000E+00
                      -1.66666667E-01 -3.33333333E-01  8.33333333E-02
                      -8.33333333E-02 -3.33333333E-01  1.66666667E-01
                      -3.33333333E-01 -2.50000000E-01  0.00000000E+00
                      -2.50000000E-01 -2.50000000E-01  8.33333333E-02
                      -1.66666667E-01 -2.50000000E-01  1.66666667E-01
                      -8.33333333E-02 -2.50000000E-01  2.50000000E-01
                      -4.16666667E-01 -1.66666667E-01  0.00000000E+00
                      -3.33333333E-01 -1.66666667E-01  8.33333333E-02
                      -2.50000000E-01 -1.66666667E-01  1.66666667E-01
                      -1.66666667E-01 -1.66666667E-01  2.50000000E-01
                      -8.33333333E-02 -1.66666667E-01  3.33333333E-01
                       5.00000000E-01 -8.33333333E-02  0.00000000E+00
                      -4.16666667E-01 -8.33333333E-02  8.33333333E-02
                      -3.33333333E-01 -8.33333333E-02  1.66666667E-01
                      -2.50000000E-01 -8.33333333E-02  2.50000000E-01
                      -1.66666667E-01 -8.33333333E-02  3.33333333E-01
                      -8.33333333E-02 -8.33333333E-02  4.16666667E-01
                      -8.33333333E-02  3.33333333E-01  0.00000000E+00
                      -1.66666667E-01  4.16666667E-01  0.00000000E+00
                      -8.33333333E-02  4.16666667E-01  8.33333333E-02
                      -2.50000000E-01  5.00000000E-01  0.00000000E+00
                      -1.66666667E-01  5.00000000E-01  8.33333333E-02
                      -8.33333333E-02  5.00000000E-01  1.66666667E-01
                      -3.33333333E-01 -4.16666667E-01  0.00000000E+00
                      -2.50000000E-01 -4.16666667E-01  8.33333333E-02
                      -1.66666667E-01 -4.16666667E-01  1.66666667E-01
                      -8.33333333E-02 -4.16666667E-01  2.50000000E-01
                      -4.16666667E-01 -3.33333333E-01  0.00000000E+00
                      -3.33333333E-01 -3.33333333E-01  8.33333333E-02
                      -2.50000000E-01 -3.33333333E-01  1.66666667E-01
                      -1.66666667E-01 -3.33333333E-01  2.50000000E-01
                      -8.33333333E-02 -3.33333333E-01  3.33333333E-01
                       5.00000000E-01 -2.50000000E-01  0.00000000E+00
                       outvar_i_n : Printing only first  50 k-points.
           kptopt1          1
           kptopt2          2
         kptrlatt        6   -6    6     -6    6    6     -6   -6    6
          kptrlen      6.20156511E+01
P           mkmem1          3
P           mkmem2         44
P          mkqmem1          3
P          mkqmem2         44
P          mk1mem1          3
P          mk1mem2         44
            natom           2
            nband1          6
            nband2          6
           ndtset           2
            ngfft          45      45      45
             nkpt1         28
             nkpt2        432
             nqpt1          0
             nqpt2          1
             nsym          48
            ntime          15
           ntypat           1
              occ1     2.000000  2.000000  2.000000  2.000000  0.000000  0.000000
              occ2     2.000000  2.000000  2.000000  2.000000  0.000000  0.000000
          optcell           2
        optdriver1          0
        optdriver2          1
          rfatpol           1       2
            rfdir1          0       0       0
            rfdir2          1       1       1
           rfelfd1          0
           rfelfd2          2
            rprim      5.0000000000E-01  5.0000000000E-01  0.0000000000E+00
                       0.0000000000E+00  5.0000000000E-01  5.0000000000E-01
                       5.0000000000E-01  0.0000000000E+00  5.0000000000E-01
           shiftk      5.00000000E-01  5.00000000E-01  5.00000000E-01
          spgroup         227
           symrel      1  0  0   0  1  0   0  0  1      -1  0  0   0 -1  0   0  0 -1
                       0 -1  1   0 -1  0   1 -1  0       0  1 -1   0  1  0  -1  1  0
                      -1  0  0  -1  0  1  -1  1  0       1  0  0   1  0 -1   1 -1  0
                       0  1 -1   1  0 -1   0  0 -1       0 -1  1  -1  0  1   0  0  1
                      -1  0  0  -1  1  0  -1  0  1       1  0  0   1 -1  0   1  0 -1
                       0 -1  1   1 -1  0   0 -1  0       0  1 -1  -1  1  0   0  1  0
                       1  0  0   0  0  1   0  1  0      -1  0  0   0  0 -1   0 -1  0
                       0  1 -1   0  0 -1   1  0 -1       0 -1  1   0  0  1  -1  0  1
                      -1  0  1  -1  1  0  -1  0  0       1  0 -1   1 -1  0   1  0  0
                       0 -1  0   1 -1  0   0 -1  1       0  1  0  -1  1  0   0  1 -1
                       1  0 -1   0  0 -1   0  1 -1      -1  0  1   0  0  1   0 -1  1
                       0  1  0   0  0  1   1  0  0       0 -1  0   0  0 -1  -1  0  0
                       1  0 -1   0  1 -1   0  0 -1      -1  0  1   0 -1  1   0  0  1
                       0 -1  0   0 -1  1   1 -1  0       0  1  0   0  1 -1  -1  1  0
                      -1  0  1  -1  0  0  -1  1  0       1  0 -1   1  0  0   1 -1  0
                       0  1  0   1  0  0   0  0  1       0 -1  0  -1  0  0   0  0 -1
                       0  0 -1   0  1 -1   1  0 -1       0  0  1   0 -1  1  -1  0  1
                       1 -1  0   0 -1  1   0 -1  0      -1  1  0   0  1 -1   0  1  0
                       0  0  1   1  0  0   0  1  0       0  0 -1  -1  0  0   0 -1  0
                      -1  1  0  -1  0  0  -1  0  1       1 -1  0   1  0  0   1  0 -1
                       0  0  1   0  1  0   1  0  0       0  0 -1   0 -1  0  -1  0  0
                       1 -1  0   0 -1  0   0 -1  1      -1  1  0   0  1  0   0  1 -1
                       0  0 -1   1  0 -1   0  1 -1       0  0  1  -1  0  1   0 -1  1
                      -1  1  0  -1  0  1  -1  0  0       1 -1  0   1  0 -1   1  0  0
            tnons      0.0000000  0.0000000  0.0000000     0.2500000  0.2500000  0.2500000
                       0.0000000  0.0000000  0.0000000     0.2500000  0.2500000  0.2500000
                       0.0000000  0.0000000  0.0000000     0.2500000  0.2500000  0.2500000
                       0.0000000  0.0000000  0.0000000     0.2500000  0.2500000  0.2500000
                       0.0000000  0.0000000  0.0000000     0.2500000  0.2500000  0.2500000
                       0.0000000  0.0000000  0.0000000     0.2500000  0.2500000  0.2500000
                       0.0000000  0.0000000  0.0000000     0.2500000  0.2500000  0.2500000
                       0.0000000  0.0000000  0.0000000     0.2500000  0.2500000  0.2500000
                       0.0000000  0.0000000  0.0000000     0.2500000  0.2500000  0.2500000
                       0.0000000  0.0000000  0.0000000     0.2500000  0.2500000  0.2500000
                       0.0000000  0.0000000  0.0000000     0.2500000  0.2500000  0.2500000
                       0.0000000  0.0000000  0.0000000     0.2500000  0.2500000  0.2500000
                       0.0000000  0.0000000  0.0000000     0.2500000  0.2500000  0.2500000
                       0.0000000  0.0000000  0.0000000     0.2500000  0.2500000  0.2500000
                       0.0000000  0.0000000  0.0000000     0.2500000  0.2500000  0.2500000
                       0.0000000  0.0000000  0.0000000     0.2500000  0.2500000  0.2500000
                       0.0000000  0.0000000  0.0000000     0.2500000  0.2500000  0.2500000
                       0.0000000  0.0000000  0.0000000     0.2500000  0.2500000  0.2500000
                       0.0000000  0.0000000  0.0000000     0.2500000  0.2500000  0.2500000
                       0.0000000  0.0000000  0.0000000     0.2500000  0.2500000  0.2500000
                       0.0000000  0.0000000  0.0000000     0.2500000  0.2500000  0.2500000
                       0.0000000  0.0000000  0.0000000     0.2500000  0.2500000  0.2500000
                       0.0000000  0.0000000  0.0000000     0.2500000  0.2500000  0.2500000
                       0.0000000  0.0000000  0.0000000     0.2500000  0.2500000  0.2500000
           tolmxf      1.00000000E-08
           tolvrs1     1.00000000E-10
           tolvrs2     0.00000000E+00
           tolwfr1     0.00000000E+00
           tolwfr2     1.00000000E-20
            typat      1  1
              wtk1       0.02778    0.02778    0.02778    0.05556    0.02778    0.02778
                         0.05556    0.02778    0.05556    0.05556    0.02778    0.02778
                         0.02778    0.05556    0.02778    0.05556    0.05556    0.05556
                         0.02778    0.02778    0.02778    0.02778    0.02778    0.05556
                         0.05556    0.00926    0.00926    0.00926
              wtk2       0.00231    0.00231    0.00231    0.00231    0.00231    0.00231
                         0.00231    0.00231    0.00231    0.00231    0.00231    0.00231
                         0.00231    0.00231    0.00231    0.00231    0.00231    0.00231
                         0.00231    0.00231    0.00231    0.00231    0.00231    0.00231
                         0.00231    0.00231    0.00231    0.00231    0.00231    0.00231
                         0.00231    0.00231    0.00231    0.00231    0.00231    0.00231
                         0.00231    0.00231    0.00231    0.00231    0.00231    0.00231
                         0.00231    0.00231    0.00231    0.00231    0.00231    0.00231
                         0.00231    0.00231
                       outvars : Printing only first  50 k-points.
           xangst      0.0000000000E+00  0.0000000000E+00  0.0000000000E+00
                       1.3673862150E+00  1.3673862150E+00  1.3673862150E+00
            xcart      0.0000000000E+00  0.0000000000E+00  0.0000000000E+00
                       2.5839854642E+00  2.5839854642E+00  2.5839854642E+00
             xred      0.0000000000E+00  0.0000000000E+00  0.0000000000E+00
                       2.5000000000E-01  2.5000000000E-01  2.5000000000E-01
            znucl       14.00000
 
================================================================================
 
 chkinp: Checking input parameters for consistency, jdtset=   1.
 
 chkinp: Checking input parameters for consistency, jdtset=   2.
 DATA TYPE INFORMATION: 
 REAL:      Data type name: REAL(DP) 
            Kind value:      8
            Precision:      15
            Smallest nonnegligible quantity relative to 1:  0.22204460E-15
            Smallest positive number:                       0.22250739-307
            Largest representable number:                   0.17976931+309
 INTEGER:   Data type name: INTEGER(default) 
            Kind value: 4
            Bit size:   32
            Largest representable number: 2147483647
 LOGICAL:   Data type name: LOGICAL 
            Kind value: 4
 CHARACTER: Data type name: CHARACTER             Kind value: 1

  ==== OpenMP parallelism is OFF ====
 
  ==== Using MPI-2 specifications ==== 
  MPI-IO support is ON
  xmpi_tag_ub ................   1073741824
  xmpi_bsize_ch ..............            1
  xmpi_bsize_int .............            4
  xmpi_bsize_sp ..............            4
  xmpi_bsize_dp ..............            8
  xmpi_bsize_spc .............            8
  xmpi_bsize_dpc .............           16
  xmpio_bsize_frm ............            4
  xmpi_address_kind ..........            8
  xmpi_offset_kind ...........            8
  MPI_WTICK ..................   1.000000000000000E-006
 
================================================================================
== DATASET  1 ==================================================================
-   nproc =   10
 
 
--- !COMMENT
src_file: m_xgScalapack.F90
src_line: 237
message: |
    xgScalapack in auto mode
...
 
 
 getdim_nloc : deduce lmnmax  =  18, lnmax  =   6,
                      lmnmaxso=  18, lnmaxso=   6.
 Exchange-correlation functional for the present dataset will be:
  GGA: Perdew-Burke-Ernzerhof functional - ixc=11
 Citation for XC functional:
  J.P.Perdew, K.Burke, M.Ernzerhof, PRL 77, 3865 (1996)
 
 Unit cell volume ucvol=  2.7605154E+02 bohr^3
 Angles (23,13,12)=  6.00000000E+01  6.00000000E+01  6.00000000E+01 degrees
 
 getcut: wavevector=  0.0000  0.0000  0.0000  ngfft=  45  45  45
         ecut(hartree)=     44.100   => boxcut(ratio)=   2.01388
- pspini: atom type   1  psp file is /CECI/home/ucl/naps/jovbever/.PsP/Si/Si.psp8
- pspatm: opening atomic psp file    /CECI/home/ucl/naps/jovbever/.PsP/Si/Si.psp8
- Si    ONCVPSP-3.2.3.1  r_core=   1.60303   1.72197   1.91712
- 14.00000   4.00000    170510                znucl, zion, pspdat
    8   11    2    4       600   0.00000      pspcod,pspxc,lmax,lloc,mmax,r2well
    5.99000000000000    4.00000000000000    0.00000000000000   rchrg,fchrg,qchrg
     nproj     2     2     2
     extension_switch     1
  valence charge integrates to:    3.95328304696650     
  pspatm : epsatm=    9.34321699
         --- l  ekb(1:nproj) -->
             0    5.168965    0.829883
             1    2.571282    0.578307
             2   -2.427311   -0.488097
 pspatm: atomic psp has been read  and splines computed
 
   1.49491472E+02                                ecore*ucvol(ha*bohr**3)
 ==== Info on pseudopotentials ====
  Norm-conserving pseudopotentials
  Number of pseudopotentials ..    1
  Number of types of atoms   ..    1
  Scalar calculation (no spin-orbit term)
  Nonlocal part applied using Legendre polynomials
  Max number of non-local projectors over l and type   2
  Highest angular momentum +1 .......   3
  Max number of (l,n)   components ..   6
  Max number of (l,m,n) components ..   6
 
 Pseudo-Core Charge Info: 
   Number of radial points for pseudo-core charge .. 2501
   XC core-correction treatment (optnlxccc) ........    1
   Radius for pseudo-core charge for each type ..... 
 
  - Atom type    1 has pseudo-core radius ..  5.9900
 
 Info on the Q-grid used for form factors in spline form: 
   Number of q-points for radial functions ffspl ..   3001
   Number of q-points for vlspl ...................   3001
   vloc is computed in Reciprocal Space
   model core charge treated in real-space
 
  XC functional for type 1 is 11
  Pseudo valence available: yes
 
 wfconv:     6 bands initialized randomly with npw=  3843, for ikpt=     1
 wfconv:     6 bands initialized randomly with npw=  3849, for ikpt=     2
 wfconv:     6 bands initialized randomly with npw=  3855, for ikpt=     3
_setup2: Arith. and geom. avg. npw (full set) are    3860.472    3860.456
 initro: for itypat=  1, take pseudo charge density from pp file
 
================================================================================
 
=== [ionmov= 2] Broyden-Fletcher-Goldfard-Shanno method (forces)            
================================================================================
 
--- Iteration: ( 1/15) Internal Cycle: (1/1)
--------------------------------------------------------------------------------
 
 Cartesian coordinates (xcart) [bohr]
  0.00000000000000E+00  0.00000000000000E+00  0.00000000000000E+00
  2.58398546423309E+00  2.58398546423309E+00  2.58398546423309E+00
 Reduced coordinates (xred)
  0.00000000000000E+00  0.00000000000000E+00  0.00000000000000E+00
  2.50000000000000E-01  2.50000000000000E-01  2.50000000000000E-01
 Scale of Primitive Cell (acell) [bohr]
  1.03359418569323E+01  1.03359418569323E+01  1.03359418569323E+01
 Real space primitive translations (rprimd) [bohr]
  5.16797092846617E+00  5.16797092846617E+00  0.00000000000000E+00
  0.00000000000000E+00  5.16797092846617E+00  5.16797092846617E+00
  5.16797092846617E+00  0.00000000000000E+00  5.16797092846617E+00
 Unitary Cell Volume (ucvol) [Bohr^3]=  2.76051544595982E+02
 Angles (23,13,12)= [degrees]
  6.00000000000000E+01  6.00000000000000E+01  6.00000000000000E+01
 Lengths [Bohr]
  7.30861457698674E+00  7.30861457698674E+00  7.30861457698674E+00
 
---SELF-CONSISTENT-FIELD CONVERGENCE--------------------------------------------
 
 getcut: wavevector=  0.0000  0.0000  0.0000  ngfft=  45  45  45
         ecut(hartree)=     40.000   => boxcut(ratio)=   2.11457
 
 ITER STEP NUMBER     1
 vtorho: nnsclo_now=2, note that nnsclo,dbl_nnsclo,istep=0 0 1
 Total charge density [el/Bohr^3]
      Maximum=    8.7665E-02  at reduced coord.    0.1556    0.1556    0.5333
      Minimum=    1.7579E-03  at reduced coord.    0.0000    0.0000    0.0000
   Integrated=    8.0000E+00
 ETOT  1  -8.4547022306444    -8.455E+00 3.052E-02 2.087E+01
 scprqt: <Vxc>= -3.3612270E-01 hartree
 
 Simple mixing update:
  residual square of the potential:    8.65556659634217
 scfcv_core: previous iteration took  2.02 [s]
 
 ITER STEP NUMBER     2
 vtorho: nnsclo_now=2, note that nnsclo,dbl_nnsclo,istep=0 0 2
 Total charge density [el/Bohr^3]
      Maximum=    8.4214E-02  at reduced coord.    0.1556    0.1556    0.5333
      Minimum=    1.5831E-03  at reduced coord.    0.0000    0.0000    0.0000
   Integrated=    8.0000E+00
 ETOT  2  -8.4625880749729    -7.886E-03 5.656E-03 4.866E-01
 scprqt: <Vxc>= -3.3808574E-01 hartree
 
 Pulay update with  1 previous iterations:
 mixing of old trial potential: alpha(m:m-4)=   1.15     -0.152
 scfcv_core: previous iteration took  1.82 [s]
 
 ITER STEP NUMBER     3
 vtorho: nnsclo_now=1, note that nnsclo,dbl_nnsclo,istep=0 0 3
 Total charge density [el/Bohr^3]
      Maximum=    8.3796E-02  at reduced coord.    0.1556    0.1556    0.5333
      Minimum=    1.5850E-03  at reduced coord.    0.0000    0.0000    0.0000
   Integrated=    8.0000E+00
 ETOT  3  -8.4626231914329    -3.512E-05 4.863E-04 6.172E-03
 scprqt: <Vxc>= -3.3841456E-01 hartree
 
 Pulay update with  2 previous iterations:
 mixing of old trial potential: alpha(m:m-4)=   1.16     -0.184      0.198E-01
 scfcv_core: previous iteration took  1.08 [s]
 
 ITER STEP NUMBER     4
 vtorho: nnsclo_now=1, note that nnsclo,dbl_nnsclo,istep=0 0 4
 Total charge density [el/Bohr^3]
      Maximum=    8.3793E-02  at reduced coord.    0.1556    0.1556    0.5333
      Minimum=    1.5851E-03  at reduced coord.    0.0000    0.0000    0.0000
   Integrated=    8.0000E+00
 ETOT  4  -8.4626234480122    -2.566E-07 1.258E-04 3.785E-04
 scprqt: <Vxc>= -3.3843956E-01 hartree
 
 Pulay update with  3 previous iterations:
 mixing of old trial potential: alpha(m:m-4)=   1.40     -0.450      0.598E-01 -0.747E-02
 scfcv_core: previous iteration took  1.07 [s]
 
 ITER STEP NUMBER     5
 vtorho: nnsclo_now=1, note that nnsclo,dbl_nnsclo,istep=0 0 5
 Total charge density [el/Bohr^3]
      Maximum=    8.3789E-02  at reduced coord.    0.1556    0.1556    0.5333
      Minimum=    1.5851E-03  at reduced coord.    0.0000    0.0000    0.0000
   Integrated=    8.0000E+00
 ETOT  5  -8.4626234606340    -1.262E-08 2.280E-04 5.804E-06
 scprqt: <Vxc>= -3.3844727E-01 hartree
 
 Pulay update with  4 previous iterations:
 mixing of old trial potential: alpha(m:m-4)=   1.40     -0.506      0.118     -0.121E-01  0.155E-02
 scfcv_core: previous iteration took  1.05 [s]
 
 ITER STEP NUMBER     6
 vtorho: nnsclo_now=1, note that nnsclo,dbl_nnsclo,istep=0 0 6
 Total charge density [el/Bohr^3]
      Maximum=    8.3789E-02  at reduced coord.    0.1556    0.1556    0.5333
      Minimum=    1.5851E-03  at reduced coord.    0.0000    0.0000    0.0000
   Integrated=    8.0000E+00
 ETOT  6  -8.4626234607616    -1.276E-10 9.864E-05 5.022E-08
 scprqt: <Vxc>= -3.3844812E-01 hartree
 
 Pulay update with  5 previous iterations:
 mixing of old trial potential: alpha(m:m-4)=   1.10     -0.149      0.597E-01 -0.101E-01  0.605E-03
 scfcv_core: previous iteration took  1.10 [s]
 
 ITER STEP NUMBER     7
 vtorho: nnsclo_now=1, note that nnsclo,dbl_nnsclo,istep=0 0 7
 Total charge density [el/Bohr^3]
      Maximum=    8.3789E-02  at reduced coord.    0.1556    0.1556    0.5333
      Minimum=    1.5851E-03  at reduced coord.    0.0000    0.0000    0.0000
   Integrated=    8.0000E+00
 ETOT  7  -8.4626234607627    -1.094E-12 2.822E-04 6.044E-10
 scprqt: <Vxc>= -3.3844805E-01 hartree
 
 Pulay update with  6 previous iterations:
 mixing of old trial potential: alpha(m:m-4)=   1.14     -0.143      0.112E-01 -0.754E-02  0.119E-02
 scfcv_core: previous iteration took  1.07 [s]
 
 ITER STEP NUMBER     8
 vtorho: nnsclo_now=1, note that nnsclo,dbl_nnsclo,istep=0 0 8
 Total charge density [el/Bohr^3]
      Maximum=    8.3789E-02  at reduced coord.    0.1556    0.1556    0.5333
      Minimum=    1.5851E-03  at reduced coord.    0.0000    0.0000    0.0000
   Integrated=    8.0000E+00
 ETOT  8  -8.4626234607626     5.507E-14 7.444E-05 3.383E-12
 scprqt: <Vxc>= -3.3844806E-01 hartree
 
 At SCF step    8       vres2   =  3.38E-12 < tolvrs=  1.00E-10 =>converged.
 
 Cartesian components of stress tensor (hartree/bohr^3)
  sigma(1 1)=  1.00453201E-06  sigma(3 2)=  0.00000000E+00
  sigma(2 2)=  1.00453201E-06  sigma(3 1)=  0.00000000E+00
  sigma(3 3)=  1.00453201E-06  sigma(2 1)=  0.00000000E+00
 
 
   fftdatar_write: About to write data to: allo_DS1_TIM1_DEN with iomode: IO_MODE_FORTRAN
 IO operation completed. cpu:  0.00 [s] , wall:  0.01 [s]
- Creating HDf5 file with MPI-IO support: allo_DS1_GSR.nc
 Write iteration in HIST netCDF file
 
---OUTPUT-----------------------------------------------------------------------
 
 Cartesian coordinates (xcart) [bohr]
  0.00000000000000E+00  0.00000000000000E+00  0.00000000000000E+00
  2.58398546423309E+00  2.58398546423309E+00  2.58398546423309E+00
 Reduced coordinates (xred)
  0.00000000000000E+00  0.00000000000000E+00  0.00000000000000E+00
  2.50000000000000E-01  2.50000000000000E-01  2.50000000000000E-01
 Cartesian forces (fcart) [Ha/bohr]; max,rms= 0.00000E+00 0.00000E+00 (free atoms)
  0.00000000000000E+00  0.00000000000000E+00  0.00000000000000E+00
  0.00000000000000E+00  0.00000000000000E+00  0.00000000000000E+00
 Reduced forces (fred)
  0.00000000000000E+00  0.00000000000000E+00  0.00000000000000E+00
  0.00000000000000E+00  0.00000000000000E+00  0.00000000000000E+00
 Scale of Primitive Cell (acell) [bohr]
  1.03359418569323E+01  1.03359418569323E+01  1.03359418569323E+01
 Real space primitive translations (rprimd) [bohr]
  5.16797092846617E+00  5.16797092846617E+00  0.00000000000000E+00
  0.00000000000000E+00  5.16797092846617E+00  5.16797092846617E+00
  5.16797092846617E+00  0.00000000000000E+00  5.16797092846617E+00
 Unitary Cell Volume (ucvol) [Bohr^3]=  2.76051544595982E+02
 Angles (23,13,12)= [degrees]
  6.00000000000000E+01  6.00000000000000E+01  6.00000000000000E+01
 Lengths [Bohr]
  7.30861457698674E+00  7.30861457698674E+00  7.30861457698674E+00
 Stress tensor in cartesian coordinates (strten) [Ha/bohr^3]
  1.00453201414778E-06  0.00000000000000E+00  0.00000000000000E+00
  0.00000000000000E+00  1.00453201414734E-06  0.00000000000000E+00
  0.00000000000000E+00  0.00000000000000E+00  1.00453201414691E-06
 Total energy (etotal) [Ha]= -8.46262346076261E+00
 fconv : at Broyd/MD step   1, gradients have not converged yet. 
  max grad (force/stress) = 1.0045E-04 > tolmxf= 1.0000E-08 ha/bohr (free atoms)
 
Inverse hessian has been initialized.
 EXIT:           1           1
 mover: previous time step took 10.84 [s]
 
--- Iteration: ( 2/15) Internal Cycle: (1/1)
--------------------------------------------------------------------------------
 
 Cartesian coordinates (xcart) [bohr]
  0.00000000000000E+00  0.00000000000000E+00  0.00000000000000E+00
  2.58390759334940E+00  2.58390759334940E+00  2.58390759334940E+00
 Reduced coordinates (xred)
  0.00000000000000E+00  0.00000000000000E+00  0.00000000000000E+00
  2.50000000000000E-01  2.50000000000000E-01  2.50000000000000E-01
 Scale of Primitive Cell (acell) [bohr]
  7.30839432486709E+00  7.30839432486709E+00  7.30839432486709E+00
 Real space primitive translations (rprimd) [bohr]
  5.16781518669880E+00  5.16781518669880E+00  0.00000000000000E+00
  0.00000000000000E+00  5.16781518669880E+00  5.16781518669880E+00
  5.16781518669880E+00  0.00000000000000E+00  5.16781518669880E+00
 Unitary Cell Volume (ucvol) [Bohr^3]=  2.76026588112816E+02
 Angles (23,13,12)= [degrees]
  6.00000000000000E+01  6.00000000000000E+01  6.00000000000000E+01
 Lengths [Bohr]
  7.30839432486709E+00  7.30839432486709E+00  7.30839432486709E+00
 
---SELF-CONSISTENT-FIELD CONVERGENCE--------------------------------------------
 
 getcut: wavevector=  0.0000  0.0000  0.0000  ngfft=  45  45  45
         ecut(hartree)=     40.000   => boxcut(ratio)=   2.11464
 
 ITER STEP NUMBER     1
 vtorho: nnsclo_now=2, note that nnsclo,dbl_nnsclo,istep=0 0 1
 Total charge density [el/Bohr^3]
      Maximum=    8.3797E-02  at reduced coord.    0.1556    0.1556    0.5333
      Minimum=    1.5851E-03  at reduced coord.    0.0000    0.0000    0.0000
   Integrated=    8.0000E+00
 ETOT  1  -8.4626234812903    -8.463E+00 3.622E-05 1.720E-05
 scprqt: <Vxc>= -3.3845830E-01 hartree
 
 Simple mixing update:
  residual square of the potential:   5.615526574142651E-006
 scfcv_core: previous iteration took  1.76 [s]
 
 ITER STEP NUMBER     2
 vtorho: nnsclo_now=2, note that nnsclo,dbl_nnsclo,istep=0 0 2
 Total charge density [el/Bohr^3]
      Maximum=    8.3795E-02  at reduced coord.    0.1556    0.1556    0.5333
      Minimum=    1.5851E-03  at reduced coord.    0.0000    0.0000    0.0000
   Integrated=    8.0000E+00
 ETOT  2  -8.4626234823803    -1.090E-09 3.692E-05 1.442E-06
 scprqt: <Vxc>= -3.3845996E-01 hartree
 
 Pulay update with  1 previous iterations:
 mixing of old trial potential: alpha(m:m-4)=   1.33     -0.334
 scfcv_core: previous iteration took  1.72 [s]
 
 ITER STEP NUMBER     3
 vtorho: nnsclo_now=1, note that nnsclo,dbl_nnsclo,istep=0 0 3
 Total charge density [el/Bohr^3]
      Maximum=    8.3795E-02  at reduced coord.    0.1556    0.1556    0.5333
      Minimum=    1.5851E-03  at reduced coord.    0.0000    0.0000    0.0000
   Integrated=    8.0000E+00
 ETOT  3  -8.4626234824489    -6.862E-11 7.444E-05 3.672E-08
 scprqt: <Vxc>= -3.3846050E-01 hartree
 
 Pulay update with  2 previous iterations:
 mixing of old trial potential: alpha(m:m-4)=   1.38     -0.458      0.813E-01
 scfcv_core: previous iteration took  1.04 [s]
 
 ITER STEP NUMBER     4
 vtorho: nnsclo_now=1, note that nnsclo,dbl_nnsclo,istep=0 0 4
 Total charge density [el/Bohr^3]
      Maximum=    8.3795E-02  at reduced coord.    0.1556    0.1556    0.5333
      Minimum=    1.5851E-03  at reduced coord.    0.0000    0.0000    0.0000
   Integrated=    8.0000E+00
 ETOT  4  -8.4626234824499    -1.046E-12 3.520E-05 1.368E-10
 scprqt: <Vxc>= -3.3846057E-01 hartree
 
 Pulay update with  3 previous iterations:
 mixing of old trial potential: alpha(m:m-4)=   1.23     -0.300      0.885E-01 -0.155E-01
 scfcv_core: previous iteration took  1.02 [s]
 
 ITER STEP NUMBER     5
 vtorho: nnsclo_now=1, note that nnsclo,dbl_nnsclo,istep=0 0 5
 Total charge density [el/Bohr^3]
      Maximum=    8.3795E-02  at reduced coord.    0.1556    0.1556    0.5333
      Minimum=    1.5851E-03  at reduced coord.    0.0000    0.0000    0.0000
   Integrated=    8.0000E+00
 ETOT  5  -8.4626234824499     1.421E-14 6.703E-05 8.532E-13
 scprqt: <Vxc>= -3.3846057E-01 hartree
 
 At SCF step    5       vres2   =  8.53E-13 < tolvrs=  1.00E-10 =>converged.
 
 Cartesian components of stress tensor (hartree/bohr^3)
  sigma(1 1)=  7.33506522E-07  sigma(3 2)=  0.00000000E+00
  sigma(2 2)=  7.33506522E-07  sigma(3 1)=  0.00000000E+00
  sigma(3 3)=  7.33506522E-07  sigma(2 1)=  0.00000000E+00
 
 
   fftdatar_write: About to write data to: allo_DS1_TIM2_DEN with iomode: IO_MODE_FORTRAN
 IO operation completed. cpu:  0.00 [s] , wall:  0.00 [s]
- Creating HDf5 file with MPI-IO support: allo_DS1_GSR.nc
 Write iteration in HIST netCDF file
 
---OUTPUT-----------------------------------------------------------------------
 
 Cartesian coordinates (xcart) [bohr]
  0.00000000000000E+00  0.00000000000000E+00  0.00000000000000E+00
  2.58390759334940E+00  2.58390759334940E+00  2.58390759334940E+00
 Reduced coordinates (xred)
  0.00000000000000E+00  0.00000000000000E+00  0.00000000000000E+00
  2.50000000000000E-01  2.50000000000000E-01  2.50000000000000E-01
 Cartesian forces (fcart) [Ha/bohr]; max,rms= 0.00000E+00 0.00000E+00 (free atoms)
  0.00000000000000E+00  0.00000000000000E+00  0.00000000000000E+00
  0.00000000000000E+00  0.00000000000000E+00  0.00000000000000E+00
 Reduced forces (fred)
  0.00000000000000E+00  0.00000000000000E+00  0.00000000000000E+00
  0.00000000000000E+00  0.00000000000000E+00  0.00000000000000E+00
 Scale of Primitive Cell (acell) [bohr]
  7.30839432486709E+00  7.30839432486709E+00  7.30839432486709E+00
 Real space primitive translations (rprimd) [bohr]
  5.16781518669880E+00  5.16781518669880E+00  0.00000000000000E+00
  0.00000000000000E+00  5.16781518669880E+00  5.16781518669880E+00
  5.16781518669880E+00  0.00000000000000E+00  5.16781518669880E+00
 Unitary Cell Volume (ucvol) [Bohr^3]=  2.76026588112816E+02
 Angles (23,13,12)= [degrees]
  6.00000000000000E+01  6.00000000000000E+01  6.00000000000000E+01
 Lengths [Bohr]
  7.30839432486709E+00  7.30839432486709E+00  7.30839432486709E+00
 Stress tensor in cartesian coordinates (strten) [Ha/bohr^3]
  7.33506522245311E-07  0.00000000000000E+00  0.00000000000000E+00
  0.00000000000000E+00  7.33506522244878E-07  0.00000000000000E+00
  0.00000000000000E+00  0.00000000000000E+00  7.33506522245311E-07
 Total energy (etotal) [Ha]= -8.46262348244990E+00
 
 Difference of energy with previous step (new-old):
           Absolute (Ha)=-2.16873E-08
           Relative     =-2.56271E-09
 fconv : at Broyd/MD step   2, gradients have not converged yet. 
  max grad (force/stress) = 7.3351E-05 > tolmxf= 1.0000E-08 ha/bohr (free atoms)
 
 EXIT:           1           1
 mover: previous time step took  6.98 [s]
 
--- Iteration: ( 3/15) Internal Cycle: (1/1)
--------------------------------------------------------------------------------
 
 Cartesian coordinates (xcart) [bohr]
  0.00000000000000E+00  0.00000000000000E+00  0.00000000000000E+00
  2.58369691329099E+00  2.58369691329099E+00  2.58369691329099E+00
 Reduced coordinates (xred)
  0.00000000000000E+00  0.00000000000000E+00  0.00000000000000E+00
  2.50000000000000E-01  2.50000000000000E-01  2.50000000000000E-01
 Scale of Primitive Cell (acell) [bohr]
  7.30779843167525E+00  7.30779843167525E+00  7.30779843167525E+00
 Real space primitive translations (rprimd) [bohr]
  5.16739382658198E+00  5.16739382658198E+00  0.00000000000000E+00
  1.19533339903679E-17  5.16739382658198E+00  5.16739382658198E+00
  5.16739382658198E+00 -1.19533339903679E-17  5.16739382658198E+00
 Unitary Cell Volume (ucvol) [Bohr^3]=  2.75959075764739E+02
 Angles (23,13,12)= [degrees]
  6.00000000000000E+01  6.00000000000000E+01  6.00000000000000E+01
 Lengths [Bohr]
  7.30779843167525E+00  7.30779843167525E+00  7.30779843167525E+00
 
---SELF-CONSISTENT-FIELD CONVERGENCE--------------------------------------------
 
 getcut: wavevector=  0.0000  0.0000  0.0000  ngfft=  45  45  45
         ecut(hartree)=     40.000   => boxcut(ratio)=   2.11481
 
 ITER STEP NUMBER     1
 vtorho: nnsclo_now=2, note that nnsclo,dbl_nnsclo,istep=0 0 1
 Total charge density [el/Bohr^3]
      Maximum=    8.3817E-02  at reduced coord.    0.1556    0.1556    0.5333
      Minimum=    1.5850E-03  at reduced coord.    0.0000    0.0000    0.0000
   Integrated=    8.0000E+00
 ETOT  1  -8.4626234987190    -8.463E+00 5.172E-05 1.259E-04
 scprqt: <Vxc>= -3.3848828E-01 hartree
 
 Simple mixing update:
  residual square of the potential:   4.110854350690321E-005
 scfcv_core: previous iteration took  1.83 [s]
 
 ITER STEP NUMBER     2
 vtorho: nnsclo_now=2, note that nnsclo,dbl_nnsclo,istep=0 0 2
 Total charge density [el/Bohr^3]
      Maximum=    8.3811E-02  at reduced coord.    0.1556    0.1556    0.5333
      Minimum=    1.5850E-03  at reduced coord.    0.0000    0.0000    0.0000
   Integrated=    8.0000E+00
 ETOT  2  -8.4626235066965    -7.977E-09 3.569E-05 1.055E-05
 scprqt: <Vxc>= -3.3849276E-01 hartree
 
 Pulay update with  1 previous iterations:
 mixing of old trial potential: alpha(m:m-4)=   1.33     -0.334
 scfcv_core: previous iteration took  1.73 [s]
 
 ITER STEP NUMBER     3
 vtorho: nnsclo_now=1, note that nnsclo,dbl_nnsclo,istep=0 0 3
 Total charge density [el/Bohr^3]
      Maximum=    8.3810E-02  at reduced coord.    0.1556    0.1556    0.5333
      Minimum=    1.5850E-03  at reduced coord.    0.0000    0.0000    0.0000
   Integrated=    8.0000E+00
 ETOT  3  -8.4626235071986    -5.021E-10 1.366E-05 2.687E-07
 scprqt: <Vxc>= -3.3849423E-01 hartree
 
 Pulay update with  2 previous iterations:
 mixing of old trial potential: alpha(m:m-4)=   1.38     -0.458      0.813E-01
 scfcv_core: previous iteration took  1.01 [s]
 
 ITER STEP NUMBER     4
 vtorho: nnsclo_now=1, note that nnsclo,dbl_nnsclo,istep=0 0 4
 Total charge density [el/Bohr^3]
      Maximum=    8.3810E-02  at reduced coord.    0.1556    0.1556    0.5333
      Minimum=    1.5850E-03  at reduced coord.    0.0000    0.0000    0.0000
   Integrated=    8.0000E+00
 ETOT  4  -8.4626235072055    -6.974E-12 2.278E-05 9.823E-10
 scprqt: <Vxc>= -3.3849441E-01 hartree
 
 Pulay update with  3 previous iterations:
 mixing of old trial potential: alpha(m:m-4)=   1.22     -0.297      0.880E-01 -0.154E-01
 scfcv_core: previous iteration took  1.00 [s]
 
 ITER STEP NUMBER     5
 vtorho: nnsclo_now=1, note that nnsclo,dbl_nnsclo,istep=0 0 5
 Total charge density [el/Bohr^3]
      Maximum=    8.3810E-02  at reduced coord.    0.1556    0.1556    0.5333
      Minimum=    1.5850E-03  at reduced coord.    0.0000    0.0000    0.0000
   Integrated=    8.0000E+00
 ETOT  5  -8.4626235072056    -8.349E-14 8.501E-06 6.379E-12
 scprqt: <Vxc>= -3.3849442E-01 hartree
 
 At SCF step    5       vres2   =  6.38E-12 < tolvrs=  1.00E-10 =>converged.
 
 Cartesian components of stress tensor (hartree/bohr^3)
  sigma(1 1)= -3.19628938E-10  sigma(3 2)=  0.00000000E+00
  sigma(2 2)= -3.19628939E-10  sigma(3 1)=  0.00000000E+00
  sigma(3 3)= -3.19628938E-10  sigma(2 1)=  0.00000000E+00
 
 
   fftdatar_write: About to write data to: allo_DS1_TIM3_DEN with iomode: IO_MODE_FORTRAN
 IO operation completed. cpu:  0.00 [s] , wall:  0.00 [s]
- Creating HDf5 file with MPI-IO support: allo_DS1_GSR.nc
 Write iteration in HIST netCDF file
 
---OUTPUT-----------------------------------------------------------------------
 
 Cartesian coordinates (xcart) [bohr]
  0.00000000000000E+00  0.00000000000000E+00  0.00000000000000E+00
  2.58369691329099E+00  2.58369691329099E+00  2.58369691329099E+00
 Reduced coordinates (xred)
  0.00000000000000E+00  0.00000000000000E+00  0.00000000000000E+00
  2.50000000000000E-01  2.50000000000000E-01  2.50000000000000E-01
 Cartesian forces (fcart) [Ha/bohr]; max,rms= 0.00000E+00 0.00000E+00 (free atoms)
  0.00000000000000E+00  0.00000000000000E+00  0.00000000000000E+00
  0.00000000000000E+00  0.00000000000000E+00  0.00000000000000E+00
 Reduced forces (fred)
  0.00000000000000E+00  0.00000000000000E+00  0.00000000000000E+00
  0.00000000000000E+00  0.00000000000000E+00  0.00000000000000E+00
 Scale of Primitive Cell (acell) [bohr]
  7.30779843167525E+00  7.30779843167525E+00  7.30779843167525E+00
 Real space primitive translations (rprimd) [bohr]
  5.16739382658198E+00  5.16739382658198E+00  0.00000000000000E+00
  1.19533339903679E-17  5.16739382658198E+00  5.16739382658198E+00
  5.16739382658198E+00 -1.19533339903679E-17  5.16739382658198E+00
 Unitary Cell Volume (ucvol) [Bohr^3]=  2.75959075764739E+02
 Angles (23,13,12)= [degrees]
  6.00000000000000E+01  6.00000000000000E+01  6.00000000000000E+01
 Lengths [Bohr]
  7.30779843167525E+00  7.30779843167525E+00  7.30779843167525E+00
 Stress tensor in cartesian coordinates (strten) [Ha/bohr^3]
 -3.19628937900385E-10  0.00000000000000E+00  0.00000000000000E+00
  0.00000000000000E+00 -3.19628938767746E-10  0.00000000000000E+00
  0.00000000000000E+00  0.00000000000000E+00 -3.19628937900385E-10
 Total energy (etotal) [Ha]= -8.46262350720562E+00
 
 Difference of energy with previous step (new-old):
           Absolute (Ha)=-2.47557E-08
           Relative     =-2.92530E-09
 fconv : at Broyd/MD step   3, gradients have not converged yet. 
  max grad (force/stress) = 3.1963E-08 > tolmxf= 1.0000E-08 ha/bohr (free atoms)
 
 EXIT:           1           1
 mover: previous time step took  7.05 [s]
 
--- Iteration: ( 4/15) Internal Cycle: (1/1)
--------------------------------------------------------------------------------
 
 Cartesian coordinates (xcart) [bohr]
  0.00000000000000E+00  0.00000000000000E+00  0.00000000000000E+00
  2.58369700503340E+00  2.58369700503340E+00  2.58369700503340E+00
 Reduced coordinates (xred)
  0.00000000000000E+00  0.00000000000000E+00  0.00000000000000E+00
  2.50000000000000E-01  2.50000000000000E-01  2.50000000000000E-01
 Scale of Primitive Cell (acell) [bohr]
  7.30779869116197E+00  7.30779869116197E+00  7.30779869116197E+00
 Real space primitive translations (rprimd) [bohr]
  5.16739401006680E+00  5.16739401006680E+00  0.00000000000000E+00
  0.00000000000000E+00  5.16739401006680E+00  5.16739401006680E+00
  5.16739401006680E+00  0.00000000000000E+00  5.16739401006680E+00
 Unitary Cell Volume (ucvol) [Bohr^3]=  2.75959105161165E+02
 Angles (23,13,12)= [degrees]
  6.00000000000000E+01  6.00000000000000E+01  6.00000000000000E+01
 Lengths [Bohr]
  7.30779869116197E+00  7.30779869116197E+00  7.30779869116197E+00
 
---SELF-CONSISTENT-FIELD CONVERGENCE--------------------------------------------
 
 getcut: wavevector=  0.0000  0.0000  0.0000  ngfft=  45  45  45
         ecut(hartree)=     40.000   => boxcut(ratio)=   2.11481
 
 ITER STEP NUMBER     1
 vtorho: nnsclo_now=2, note that nnsclo,dbl_nnsclo,istep=0 0 1
 Total charge density [el/Bohr^3]
      Maximum=    8.3810E-02  at reduced coord.    0.1556    0.1556    0.5333
      Minimum=    1.5850E-03  at reduced coord.    0.0000    0.0000    0.0000
   Integrated=    8.0000E+00
 ETOT  1  -8.4626235072056    -8.463E+00 5.112E-06 2.252E-11
 scprqt: <Vxc>= -3.3849441E-01 hartree
 
 At SCF step    1       vres2   =  2.25E-11 < tolvrs=  1.00E-10 =>converged.
 
 Cartesian components of stress tensor (hartree/bohr^3)
  sigma(1 1)=  1.53148374E-10  sigma(3 2)=  0.00000000E+00
  sigma(2 2)=  1.53148373E-10  sigma(3 1)=  0.00000000E+00
  sigma(3 3)=  1.53148374E-10  sigma(2 1)=  0.00000000E+00
 
 
   fftdatar_write: About to write data to: allo_DS1_TIM4_DEN with iomode: IO_MODE_FORTRAN
 IO operation completed. cpu:  0.00 [s] , wall:  0.00 [s]
- Creating HDf5 file with MPI-IO support: allo_DS1_GSR.nc
 Write iteration in HIST netCDF file
 
---OUTPUT-----------------------------------------------------------------------
 
 Cartesian coordinates (xcart) [bohr]
  0.00000000000000E+00  0.00000000000000E+00  0.00000000000000E+00
  2.58369700503340E+00  2.58369700503340E+00  2.58369700503340E+00
 Reduced coordinates (xred)
  0.00000000000000E+00  0.00000000000000E+00  0.00000000000000E+00
  2.50000000000000E-01  2.50000000000000E-01  2.50000000000000E-01
 Cartesian forces (fcart) [Ha/bohr]; max,rms= 0.00000E+00 0.00000E+00 (free atoms)
  0.00000000000000E+00  0.00000000000000E+00  0.00000000000000E+00
  0.00000000000000E+00  0.00000000000000E+00  0.00000000000000E+00
 Reduced forces (fred)
  0.00000000000000E+00  0.00000000000000E+00  0.00000000000000E+00
  0.00000000000000E+00  0.00000000000000E+00  0.00000000000000E+00
 Scale of Primitive Cell (acell) [bohr]
  7.30779869116197E+00  7.30779869116197E+00  7.30779869116197E+00
 Real space primitive translations (rprimd) [bohr]
  5.16739401006680E+00  5.16739401006680E+00  0.00000000000000E+00
  0.00000000000000E+00  5.16739401006680E+00  5.16739401006680E+00
  5.16739401006680E+00  0.00000000000000E+00  5.16739401006680E+00
 Unitary Cell Volume (ucvol) [Bohr^3]=  2.75959105161165E+02
 Angles (23,13,12)= [degrees]
  6.00000000000000E+01  6.00000000000000E+01  6.00000000000000E+01
 Lengths [Bohr]
  7.30779869116197E+00  7.30779869116197E+00  7.30779869116197E+00
 Stress tensor in cartesian coordinates (strten) [Ha/bohr^3]
  1.53148373756989E-10  0.00000000000000E+00  0.00000000000000E+00
  0.00000000000000E+00  1.53148372889628E-10  0.00000000000000E+00
  0.00000000000000E+00  0.00000000000000E+00  1.53148373756989E-10
 Total energy (etotal) [Ha]= -8.46262350720556E+00
 
 Difference of energy with previous step (new-old):
           Absolute (Ha)= 6.03961E-14
           Relative     = 7.13681E-15
 fconv : at Broyd/MD step   4, gradients have not converged yet. 
  max grad (force/stress) = 1.5315E-08 > tolmxf= 1.0000E-08 ha/bohr (free atoms)
 
 EXIT:           1           1
 mover: previous time step took  2.42 [s]
 
--- Iteration: ( 5/15) Internal Cycle: (1/1)
--------------------------------------------------------------------------------
 
 Cartesian coordinates (xcart) [bohr]
  0.00000000000000E+00  0.00000000000000E+00  0.00000000000000E+00
  2.58369697531497E+00  2.58369697531497E+00  2.58369697531497E+00
 Reduced coordinates (xred)
  0.00000000000000E+00  0.00000000000000E+00  0.00000000000000E+00
  2.50000000000000E-01  2.50000000000000E-01  2.50000000000000E-01
 Scale of Primitive Cell (acell) [bohr]
  7.30779860710554E+00  7.30779860710554E+00  7.30779860710554E+00
 Real space primitive translations (rprimd) [bohr]
  5.16739395062993E+00  5.16739395062993E+00  0.00000000000000E+00
  0.00000000000000E+00  5.16739395062993E+00  5.16739395062993E+00
  5.16739395062993E+00  0.00000000000000E+00  5.16739395062993E+00
 Unitary Cell Volume (ucvol) [Bohr^3]=  2.75959095638679E+02
 Angles (23,13,12)= [degrees]
  6.00000000000000E+01  6.00000000000000E+01  6.00000000000000E+01
 Lengths [Bohr]
  7.30779860710554E+00  7.30779860710554E+00  7.30779860710554E+00
 
---SELF-CONSISTENT-FIELD CONVERGENCE--------------------------------------------
 
 getcut: wavevector=  0.0000  0.0000  0.0000  ngfft=  45  45  45
         ecut(hartree)=     40.000   => boxcut(ratio)=   2.11481
 
 ITER STEP NUMBER     1
 vtorho: nnsclo_now=2, note that nnsclo,dbl_nnsclo,istep=0 0 1
 Total charge density [el/Bohr^3]
      Maximum=    8.3810E-02  at reduced coord.    0.1556    0.1556    0.5333
      Minimum=    1.5850E-03  at reduced coord.    0.0000    0.0000    0.0000
   Integrated=    8.0000E+00
 ETOT  1  -8.4626235072056    -8.463E+00 3.012E-06 8.322E-12
 scprqt: <Vxc>= -3.3849441E-01 hartree
 
 At SCF step    1       vres2   =  8.32E-12 < tolvrs=  1.00E-10 =>converged.
 
 Cartesian components of stress tensor (hartree/bohr^3)
  sigma(1 1)= -2.38579657E-10  sigma(3 2)=  0.00000000E+00
  sigma(2 2)= -2.38579659E-10  sigma(3 1)=  0.00000000E+00
  sigma(3 3)= -2.38579657E-10  sigma(2 1)=  0.00000000E+00
 
 
   fftdatar_write: About to write data to: allo_DS1_TIM5_DEN with iomode: IO_MODE_FORTRAN
 IO operation completed. cpu:  0.00 [s] , wall:  0.01 [s]
- Creating HDf5 file with MPI-IO support: allo_DS1_GSR.nc
 Write iteration in HIST netCDF file
 
---OUTPUT-----------------------------------------------------------------------
 
 Cartesian coordinates (xcart) [bohr]
  0.00000000000000E+00  0.00000000000000E+00  0.00000000000000E+00
  2.58369697531497E+00  2.58369697531497E+00  2.58369697531497E+00
 Reduced coordinates (xred)
  0.00000000000000E+00  0.00000000000000E+00  0.00000000000000E+00
  2.50000000000000E-01  2.50000000000000E-01  2.50000000000000E-01
 Cartesian forces (fcart) [Ha/bohr]; max,rms= 0.00000E+00 0.00000E+00 (free atoms)
  0.00000000000000E+00  0.00000000000000E+00  0.00000000000000E+00
  0.00000000000000E+00  0.00000000000000E+00  0.00000000000000E+00
 Reduced forces (fred)
  0.00000000000000E+00  0.00000000000000E+00  0.00000000000000E+00
  0.00000000000000E+00  0.00000000000000E+00  0.00000000000000E+00
 Scale of Primitive Cell (acell) [bohr]
  7.30779860710554E+00  7.30779860710554E+00  7.30779860710554E+00
 Real space primitive translations (rprimd) [bohr]
  5.16739395062993E+00  5.16739395062993E+00  0.00000000000000E+00
  0.00000000000000E+00  5.16739395062993E+00  5.16739395062993E+00
  5.16739395062993E+00  0.00000000000000E+00  5.16739395062993E+00
 Unitary Cell Volume (ucvol) [Bohr^3]=  2.75959095638679E+02
 Angles (23,13,12)= [degrees]
  6.00000000000000E+01  6.00000000000000E+01  6.00000000000000E+01
 Lengths [Bohr]
  7.30779860710554E+00  7.30779860710554E+00  7.30779860710554E+00
 Stress tensor in cartesian coordinates (strten) [Ha/bohr^3]
 -2.38579656898497E-10  0.00000000000000E+00  0.00000000000000E+00
  0.00000000000000E+00 -2.38579658633220E-10  0.00000000000000E+00
  0.00000000000000E+00  0.00000000000000E+00 -2.38579656898497E-10
 Total energy (etotal) [Ha]= -8.46262350720563E+00
 
 Difference of energy with previous step (new-old):
           Absolute (Ha)=-7.63833E-14
           Relative     =-9.02597E-15
 fconv : at Broyd/MD step   5, gradients have not converged yet. 
  max grad (force/stress) = 2.3858E-08 > tolmxf= 1.0000E-08 ha/bohr (free atoms)
 
 EXIT:           1           1
 mover: previous time step took  2.55 [s]
 
--- Iteration: ( 6/15) Internal Cycle: (1/1)
--------------------------------------------------------------------------------
 
 Cartesian coordinates (xcart) [bohr]
  0.00000000000000E+00  0.00000000000000E+00  0.00000000000000E+00
  2.58369699341481E+00  2.58369699341481E+00  2.58369699341481E+00
 Reduced coordinates (xred)
  0.00000000000000E+00  0.00000000000000E+00  0.00000000000000E+00
  2.50000000000000E-01  2.50000000000000E-01  2.50000000000000E-01
 Scale of Primitive Cell (acell) [bohr]
  7.30779865829962E+00  7.30779865829962E+00  7.30779865829962E+00
 Real space primitive translations (rprimd) [bohr]
  5.16739398682961E+00  5.16739398682961E+00  0.00000000000000E+00
  0.00000000000000E+00  5.16739398682961E+00  5.16739398682961E+00
  5.16739398682961E+00  0.00000000000000E+00  5.16739398682961E+00
 Unitary Cell Volume (ucvol) [Bohr^3]=  2.75959101438294E+02
 Angles (23,13,12)= [degrees]
  6.00000000000000E+01  6.00000000000000E+01  6.00000000000000E+01
 Lengths [Bohr]
  7.30779865829962E+00  7.30779865829962E+00  7.30779865829962E+00
 
---SELF-CONSISTENT-FIELD CONVERGENCE--------------------------------------------
 
 getcut: wavevector=  0.0000  0.0000  0.0000  ngfft=  45  45  45
         ecut(hartree)=     40.000   => boxcut(ratio)=   2.11481
 
 ITER STEP NUMBER     1
 vtorho: nnsclo_now=2, note that nnsclo,dbl_nnsclo,istep=0 0 1
 Total charge density [el/Bohr^3]
      Maximum=    8.3810E-02  at reduced coord.    0.1556    0.1556    0.5333
      Minimum=    1.5850E-03  at reduced coord.    0.0000    0.0000    0.0000
   Integrated=    8.0000E+00
 ETOT  1  -8.4626235072056    -8.463E+00 1.754E-06 3.506E-12
 scprqt: <Vxc>= -3.3849441E-01 hartree
 
 At SCF step    1       vres2   =  3.51E-12 < tolvrs=  1.00E-10 =>converged.
 
 Cartesian components of stress tensor (hartree/bohr^3)
  sigma(1 1)=  2.47366485E-11  sigma(3 2)=  0.00000000E+00
  sigma(2 2)=  2.47366507E-11  sigma(3 1)=  0.00000000E+00
  sigma(3 3)=  2.47366494E-11  sigma(2 1)=  0.00000000E+00
 
 
   fftdatar_write: About to write data to: allo_DS1_TIM6_DEN with iomode: IO_MODE_FORTRAN
 IO operation completed. cpu:  0.00 [s] , wall:  0.00 [s]
- Creating HDf5 file with MPI-IO support: allo_DS1_GSR.nc
 Write iteration in HIST netCDF file
 
---OUTPUT-----------------------------------------------------------------------
 
 Cartesian coordinates (xcart) [bohr]
  0.00000000000000E+00  0.00000000000000E+00  0.00000000000000E+00
  2.58369699341481E+00  2.58369699341481E+00  2.58369699341481E+00
 Reduced coordinates (xred)
  0.00000000000000E+00  0.00000000000000E+00  0.00000000000000E+00
  2.50000000000000E-01  2.50000000000000E-01  2.50000000000000E-01
 Cartesian forces (fcart) [Ha/bohr]; max,rms= 0.00000E+00 0.00000E+00 (free atoms)
  0.00000000000000E+00  0.00000000000000E+00  0.00000000000000E+00
  0.00000000000000E+00  0.00000000000000E+00  0.00000000000000E+00
 Reduced forces (fred)
  0.00000000000000E+00  0.00000000000000E+00  0.00000000000000E+00
  0.00000000000000E+00  0.00000000000000E+00  0.00000000000000E+00
 Scale of Primitive Cell (acell) [bohr]
  7.30779865829962E+00  7.30779865829962E+00  7.30779865829962E+00
 Real space primitive translations (rprimd) [bohr]
  5.16739398682961E+00  5.16739398682961E+00  0.00000000000000E+00
  0.00000000000000E+00  5.16739398682961E+00  5.16739398682961E+00
  5.16739398682961E+00  0.00000000000000E+00  5.16739398682961E+00
 Unitary Cell Volume (ucvol) [Bohr^3]=  2.75959101438294E+02
 Angles (23,13,12)= [degrees]
  6.00000000000000E+01  6.00000000000000E+01  6.00000000000000E+01
 Lengths [Bohr]
  7.30779865829962E+00  7.30779865829962E+00  7.30779865829962E+00
 Stress tensor in cartesian coordinates (strten) [Ha/bohr^3]
  2.47366484934508E-11  0.00000000000000E+00  0.00000000000000E+00
  0.00000000000000E+00  2.47366506618552E-11  0.00000000000000E+00
  0.00000000000000E+00  0.00000000000000E+00  2.47366493608125E-11
 Total energy (etotal) [Ha]= -8.46262350720558E+00
 
 Difference of energy with previous step (new-old):
           Absolute (Ha)= 5.50671E-14
           Relative     = 6.50709E-15
 
 At Broyd/MD step   6, gradients are converged : 
  max grad (force/stress) = 2.4737E-09 < tolmxf= 1.0000E-08 ha/bohr (free atoms)
 
================================================================================
 
 ----iterations are completed or convergence reached----
 
 
 === Gap info ===
  >>>> For spin  1
   Minimum direct gap =   2.6437 [eV], located at k-point      :  -0.4167  0.0000  0.0000
   Fundamental gap    =   0.9506 [eV], Top of valence bands at :  -0.0833  0.0000  0.0000
                                       Bottom of conduction at :  -0.4167  0.5000  0.0000
 Mean square residual over all n,k,spin=   11.044E-09; max=  17.538E-07
  -0.0833 -0.1667  0.0000    1  3.51300E-17 kpt; spin; max resid(k); each band:
  1.21E-22 2.40E-21 2.09E-20 9.22E-21 1.63E-19 3.51E-17
  -0.0833 -0.3333  0.0000    1  3.95667E-20 kpt; spin; max resid(k); each band:
  7.71E-22 3.19E-21 2.21E-21 1.76E-21 2.06E-20 3.96E-20
  -0.1667 -0.2500  0.0000    1  7.52770E-18 kpt; spin; max resid(k); each band:
  5.41E-22 1.54E-21 6.60E-21 9.39E-21 3.10E-20 7.53E-18
  -0.0833 -0.2500  0.0833    1  1.52925E-18 kpt; spin; max resid(k); each band:
  2.05E-20 8.87E-21 4.61E-21 2.06E-20 6.52E-19 1.53E-18
  -0.0833  0.5000  0.0000    1  6.47372E-21 kpt; spin; max resid(k); each band:
  6.47E-21 1.21E-21 1.18E-21 3.22E-21 2.41E-21 4.70E-21
  -0.1667 -0.4167  0.0000    1  2.52266E-17 kpt; spin; max resid(k); each band:
  8.67E-22 2.45E-21 1.78E-21 6.77E-22 3.13E-20 2.52E-17
  -0.0833 -0.4167  0.0833    1  2.38828E-19 kpt; spin; max resid(k); each band:
  3.03E-20 2.34E-20 3.30E-21 8.86E-21 2.39E-19 4.30E-20
  -0.2500 -0.3333  0.0000    1  3.62938E-21 kpt; spin; max resid(k); each band:
  9.03E-22 9.51E-22 2.64E-21 2.71E-21 3.63E-21 1.07E-21
  -0.1667 -0.3333  0.0833    1  6.11974E-17 kpt; spin; max resid(k); each band:
  2.70E-20 3.25E-21 4.77E-21 3.90E-21 4.39E-20 6.12E-17
  -0.0833 -0.3333  0.1667    1  2.62025E-19 kpt; spin; max resid(k); each band:
  2.17E-21 1.75E-21 1.55E-21 5.41E-21 4.11E-20 2.62E-19
  -0.0833  0.3333  0.0000    1  9.86633E-08 kpt; spin; max resid(k); each band:
  8.43E-20 1.57E-20 1.69E-20 3.11E-21 3.20E-19 9.87E-08
  -0.1667  0.4167  0.0000    1  8.04895E-17 kpt; spin; max resid(k); each band:
  6.91E-21 6.46E-21 5.64E-21 3.56E-20 2.80E-20 8.05E-17
  -0.2500  0.5000  0.0000    1  2.41402E-19 kpt; spin; max resid(k); each band:
  1.30E-21 1.31E-21 1.26E-21 1.05E-21 7.24E-21 2.41E-19
  -0.1667  0.5000  0.0833    1  1.08050E-19 kpt; spin; max resid(k); each band:
  1.62E-21 1.51E-21 1.66E-21 1.17E-21 2.16E-20 1.08E-19
  -0.3333 -0.4167  0.0000    1  3.06873E-21 kpt; spin; max resid(k); each band:
  1.04E-21 4.74E-22 1.23E-21 1.25E-21 2.90E-21 3.07E-21
  -0.2500 -0.4167  0.0833    1  1.92367E-20 kpt; spin; max resid(k); each band:
  3.18E-22 1.16E-21 1.22E-21 1.79E-21 4.09E-21 1.92E-20
  -0.1667 -0.4167  0.1667    1  1.85952E-18 kpt; spin; max resid(k); each band:
  8.87E-21 7.50E-21 2.15E-21 2.54E-20 3.86E-19 1.86E-18
  -0.0833 -0.4167  0.2500    1  2.00360E-18 kpt; spin; max resid(k); each band:
  6.35E-21 1.06E-21 1.15E-21 8.36E-21 1.10E-20 2.00E-18
  -0.0833  0.1667  0.0000    1  3.63942E-15 kpt; spin; max resid(k); each band:
  4.60E-22 1.73E-21 7.90E-21 7.66E-22 8.71E-20 3.64E-15
  -0.1667  0.2500  0.0000    1  2.78159E-09 kpt; spin; max resid(k); each band:
  1.62E-20 4.85E-21 5.41E-21 3.41E-22 7.81E-19 2.78E-09
  -0.2500  0.3333  0.0000    1  1.75378E-06 kpt; spin; max resid(k); each band:
  5.57E-21 3.82E-21 2.02E-21 7.31E-21 1.52E-20 1.75E-06
  -0.3333  0.4167  0.0000    1  1.54796E-19 kpt; spin; max resid(k); each band:
  1.69E-21 6.81E-22 1.11E-21 1.65E-22 1.11E-21 1.55E-19
  -0.4167  0.5000  0.0000    1  2.72232E-21 kpt; spin; max resid(k); each band:
  1.92E-22 2.27E-22 8.86E-22 1.62E-22 1.41E-21 2.72E-21
  -0.3333  0.5000  0.0833    1  2.07476E-20 kpt; spin; max resid(k); each band:
  8.04E-22 2.82E-21 1.14E-21 4.97E-21 2.07E-20 6.73E-21
  -0.2500  0.5000  0.1667    1  2.81207E-18 kpt; spin; max resid(k); each band:
  2.76E-21 1.55E-21 1.00E-21 1.41E-21 1.96E-20 2.81E-18
  -0.0833  0.0000  0.0000    1  1.78705E-10 kpt; spin; max resid(k); each band:
  4.02E-23 3.05E-21 3.35E-21 4.93E-21 1.79E-10 1.31E-21
  -0.2500  0.0000  0.0000    1  6.89039E-21 kpt; spin; max resid(k); each band:
  7.17E-22 2.57E-21 2.36E-21 1.95E-21 3.87E-21 6.89E-21
  -0.4167  0.0000  0.0000    1  2.74026E-21 kpt; spin; max resid(k); each band:
  2.14E-21 2.74E-21 7.83E-22 1.84E-21 9.95E-22 5.12E-22
 
   outwf: writing wavefunctions to: allo_DS1_WFK with iomode: IO_MODE_FORTRAN_MASTER
 WFK output completed. cpu:  0.28 [s] , wall:  0.57 [s]
 prteigrs : about to open file allo_DS1_EIG
 Fermi (or HOMO) energy (hartree) =   0.14799   Average Vxc (hartree)=  -0.33849
 Eigenvalues (hartree) for nkpt=  28  k points:
 kpt#   1, nband=  6, wtk=  0.02778, kpt= -0.0833 -0.1667  0.0000 (reduced coord)
  -0.26922    0.08228    0.12462    0.13116    0.23766    0.26885
 kpt#   2, nband=  6, wtk=  0.02778, kpt= -0.0833 -0.3333  0.0000 (reduced coord)
  -0.23608   -0.02395    0.10564    0.10658    0.23516    0.27341
 kpt#   3, nband=  6, wtk=  0.02778, kpt= -0.1667 -0.2500  0.0000 (reduced coord)
  -0.25195    0.03826    0.09745    0.09816    0.21666    0.29413
 kpt#   4, nband=  6, wtk=  0.05556, kpt= -0.0833 -0.2500  0.0833 (reduced coord)
  -0.24380    0.00810    0.07504    0.11759    0.24862    0.27949
 kpt#   5, nband=  6, wtk=  0.02778, kpt= -0.0833  0.5000  0.0000 (reduced coord)
  -0.19614   -0.09587    0.08848    0.10340    0.22574    0.27328
 kpt#   6, nband=  6, wtk=  0.02778, kpt= -0.1667 -0.4167  0.0000 (reduced coord)
  -0.21252   -0.05333    0.06504    0.08716    0.22696    0.30688
 kpt#   7, nband=  6, wtk=  0.05556, kpt= -0.0833 -0.4167  0.0833 (reduced coord)
  -0.20083   -0.07795    0.06033    0.09700    0.24678    0.27092
 kpt#   8, nband=  6, wtk=  0.02778, kpt= -0.2500 -0.3333  0.0000 (reduced coord)
  -0.22645   -0.00928    0.06829    0.07617    0.19839    0.25570
 kpt#   9, nband=  6, wtk=  0.05556, kpt= -0.1667 -0.3333  0.0833 (reduced coord)
  -0.21903   -0.02860    0.04982    0.08411    0.23120    0.29035
 kpt#  10, nband=  6, wtk=  0.05556, kpt= -0.0833 -0.3333  0.1667 (reduced coord)
  -0.20481   -0.05360    0.02655    0.09348    0.26155    0.28493
 kpt#  11, nband=  6, wtk=  0.02778, kpt= -0.0833  0.3333  0.0000 (reduced coord)
  -0.22123   -0.05459    0.08618    0.11717    0.23139    0.28343
 kpt#  12, nband=  6, wtk=  0.02778, kpt= -0.1667  0.4167  0.0000 (reduced coord)
  -0.18760   -0.09252    0.04495    0.09565    0.23287    0.30078
 kpt#  13, nband=  6, wtk=  0.02778, kpt= -0.2500  0.5000  0.0000 (reduced coord)
  -0.18337   -0.07949    0.02575    0.07364    0.20972    0.31604
 kpt#  14, nband=  6, wtk=  0.05556, kpt= -0.1667  0.5000  0.0833 (reduced coord)
  -0.17885   -0.09169    0.02784    0.07594    0.24019    0.29664
 kpt#  15, nband=  6, wtk=  0.02778, kpt= -0.3333 -0.4167  0.0000 (reduced coord)
  -0.19327   -0.05892    0.04862    0.06085    0.18687    0.22255
 kpt#  16, nband=  6, wtk=  0.05556, kpt= -0.2500 -0.4167  0.0833 (reduced coord)
  -0.18721   -0.06696    0.02982    0.05856    0.21713    0.26382
 kpt#  17, nband=  6, wtk=  0.05556, kpt= -0.1667 -0.4167  0.1667 (reduced coord)
  -0.17633   -0.08093    0.01219    0.05853    0.27146    0.29072
 kpt#  18, nband=  6, wtk=  0.05556, kpt= -0.0833 -0.4167  0.2500 (reduced coord)
  -0.16364   -0.09507    0.00077    0.06595    0.23194    0.33775
 kpt#  19, nband=  6, wtk=  0.02778, kpt= -0.0833  0.1667  0.0000 (reduced coord)
  -0.26068    0.04551    0.10320    0.14029    0.25007    0.26881
 kpt#  20, nband=  6, wtk=  0.02778, kpt= -0.1667  0.2500  0.0000 (reduced coord)
  -0.22783   -0.02415    0.04849    0.11951    0.25350    0.29908
 kpt#  21, nband=  6, wtk=  0.02778, kpt= -0.2500  0.3333  0.0000 (reduced coord)
  -0.18529   -0.07661    0.00853    0.09107    0.22758    0.34706
 kpt#  22, nband=  6, wtk=  0.02778, kpt= -0.3333  0.4167  0.0000 (reduced coord)
  -0.15395   -0.10421    0.00185    0.06659    0.19973    0.30555
 kpt#  23, nband=  6, wtk=  0.02778, kpt= -0.4167  0.5000  0.0000 (reduced coord)
  -0.15332   -0.10776    0.03888    0.05304    0.18293    0.20351
 kpt#  24, nband=  6, wtk=  0.05556, kpt= -0.3333  0.5000  0.0833 (reduced coord)
  -0.15008   -0.10750    0.01830    0.04623    0.20959    0.25034
 kpt#  25, nband=  6, wtk=  0.05556, kpt= -0.2500  0.5000  0.1667 (reduced coord)
  -0.14632   -0.10778    0.00642    0.03445    0.26416    0.31042
 kpt#  26, nband=  6, wtk=  0.00926, kpt= -0.0833  0.0000  0.0000 (reduced coord)
  -0.27792    0.12152    0.14799    0.14799    0.24695    0.25440
 kpt#  27, nband=  6, wtk=  0.00926, kpt= -0.2500  0.0000  0.0000 (reduced coord)
  -0.25238    0.01011    0.12570    0.12570    0.22469    0.28118
 kpt#  28, nband=  6, wtk=  0.00926, kpt= -0.4167  0.0000  0.0000 (reduced coord)
  -0.20940   -0.08140    0.11155    0.11155    0.20870    0.27801
 Total charge density [el/Bohr^3]
      Maximum=    8.3810E-02  at reduced coord.    0.1556    0.1556    0.5333
 Next maximum=    8.3810E-02  at reduced coord.    0.1556    0.5333    0.1556
      Minimum=    1.5850E-03  at reduced coord.    0.0000    0.0000    0.0000
 Next minimum=    2.0670E-03  at reduced coord.    0.2444    0.2444    0.2444
   Integrated=    8.0000E+00
 
 Cartesian components of stress tensor (hartree/bohr^3)
  sigma(1 1)=  2.47366485E-11  sigma(3 2)=  0.00000000E+00
  sigma(2 2)=  2.47366507E-11  sigma(3 1)=  0.00000000E+00
  sigma(3 3)=  2.47366494E-11  sigma(2 1)=  0.00000000E+00
 
-Cartesian components of stress tensor (GPa)         [Pressure= -7.2778E-07 GPa]
- sigma(1 1)=  7.27777203E-07  sigma(3 2)=  0.00000000E+00
- sigma(2 2)=  7.27777266E-07  sigma(3 1)=  0.00000000E+00
- sigma(3 3)=  7.27777228E-07  sigma(2 1)=  0.00000000E+00
 
================================================================================
== DATASET  2 ==================================================================
-   nproc =   10
 
 
--- !COMMENT
src_file: m_xgScalapack.F90
src_line: 237
message: |
    xgScalapack in auto mode
...
 
 mkfilename : getwfk/=0, take file _WFK from output of DATASET   1.
 
 
 getdim_nloc : deduce lmnmax  =  18, lnmax  =   6,
                      lmnmaxso=  18, lnmaxso=   6.
 Exchange-correlation functional for the present dataset will be:
  GGA: Perdew-Burke-Ernzerhof functional - ixc=11
 Citation for XC functional:
  J.P.Perdew, K.Burke, M.Ernzerhof, PRL 77, 3865 (1996)
 
 Unit cell volume ucvol=  2.7605154E+02 bohr^3
 Angles (23,13,12)=  6.00000000E+01  6.00000000E+01  6.00000000E+01 degrees
 setup1 : take into account q-point for computing boxcut.
 
 getcut: wavevector=  0.0000  0.0000  0.0000  ngfft=  45  45  45
         ecut(hartree)=     44.100   => boxcut(ratio)=   2.01388
 inwffil: examining the header of disk file: allo_DS1_WFK
 
================================================================================
 
          - hdr_check: checking restart file header for consistency -
 
 
        current calculation                         restart file
        -------------------                         ------------
 
  calculation expects a wf_planewave    |  input file contains a wf_planewave
. ABINIT  code version 8.11.1           |  ABINIT  code version 8.11.1
. date 20200108 bantot 2592 natom    2  |  date 20200108 bantot  168 natom    2
  nkpt 432 nsym 48 ngfft  45,  45,  45  |  nkpt  28 nsym 48 ngfft  45,  45,  45
  ntypat  1 ecut_eff  44.1000000        |  ntypat  1 ecut_eff  44.1000000
  usepaw  0                             |  usepaw  0
  usewvl  0                             |  usewvl  0
  rprimd:                               |  rprimd:
     5.1679709   5.1679709   0.0000000  |     5.1679709   5.1679709   0.0000000
     0.0000000   5.1679709   5.1679709  |     0.0000000   5.1679709   5.1679709
     5.1679709   0.0000000   5.1679709  |     5.1679709   0.0000000   5.1679709
 
--- !COMMENT
src_file: m_hdr.F90
src_line: 3943
message: |
    input nkpt=432 not equal disk file nkpt=28
...
 
  symafm:                               |  symafm:
    1  1  1  1  1  1  1  1  1  1  1  1  |    1  1  1  1  1  1  1  1  1  1  1  1
    1  1  1  1  1  1  1  1  1  1  1  1  |    1  1  1  1  1  1  1  1  1  1  1  1
    1  1  1  1  1  1  1  1  1  1  1  1  |    1  1  1  1  1  1  1  1  1  1  1  1
    1  1  1  1  1  1  1  1  1  1  1  1  |    1  1  1  1  1  1  1  1  1  1  1  1
  symrel:                               |  symrel:
    1  0  0  0  1  0  0  0  1           |    1  0  0  0  1  0  0  0  1
   -1  0  0  0 -1  0  0  0 -1           |   -1  0  0  0 -1  0  0  0 -1
    0 -1  1  0 -1  0  1 -1  0           |    0 -1  1  0 -1  0  1 -1  0
    0  1 -1  0  1  0 -1  1  0           |    0  1 -1  0  1  0 -1  1  0
   -1  0  0 -1  0  1 -1  1  0           |   -1  0  0 -1  0  1 -1  1  0
    1  0  0  1  0 -1  1 -1  0           |    1  0  0  1  0 -1  1 -1  0
    0  1 -1  1  0 -1  0  0 -1           |    0  1 -1  1  0 -1  0  0 -1
    0 -1  1 -1  0  1  0  0  1           |    0 -1  1 -1  0  1  0  0  1
   -1  0  0 -1  1  0 -1  0  1           |   -1  0  0 -1  1  0 -1  0  1
    1  0  0  1 -1  0  1  0 -1           |    1  0  0  1 -1  0  1  0 -1
    0 -1  1  1 -1  0  0 -1  0           |    0 -1  1  1 -1  0  0 -1  0
    0  1 -1 -1  1  0  0  1  0           |    0  1 -1 -1  1  0  0  1  0
    1  0  0  0  0  1  0  1  0           |    1  0  0  0  0  1  0  1  0
   -1  0  0  0  0 -1  0 -1  0           |   -1  0  0  0  0 -1  0 -1  0
    0  1 -1  0  0 -1  1  0 -1           |    0  1 -1  0  0 -1  1  0 -1
    0 -1  1  0  0  1 -1  0  1           |    0 -1  1  0  0  1 -1  0  1
   -1  0  1 -1  1  0 -1  0  0           |   -1  0  1 -1  1  0 -1  0  0
    1  0 -1  1 -1  0  1  0  0           |    1  0 -1  1 -1  0  1  0  0
    0 -1  0  1 -1  0  0 -1  1           |    0 -1  0  1 -1  0  0 -1  1
    0  1  0 -1  1  0  0  1 -1           |    0  1  0 -1  1  0  0  1 -1
    1  0 -1  0  0 -1  0  1 -1           |    1  0 -1  0  0 -1  0  1 -1
   -1  0  1  0  0  1  0 -1  1           |   -1  0  1  0  0  1  0 -1  1
    0  1  0  0  0  1  1  0  0           |    0  1  0  0  0  1  1  0  0
    0 -1  0  0  0 -1 -1  0  0           |    0 -1  0  0  0 -1 -1  0  0
    1  0 -1  0  1 -1  0  0 -1           |    1  0 -1  0  1 -1  0  0 -1
   -1  0  1  0 -1  1  0  0  1           |   -1  0  1  0 -1  1  0  0  1
    0 -1  0  0 -1  1  1 -1  0           |    0 -1  0  0 -1  1  1 -1  0
    0  1  0  0  1 -1 -1  1  0           |    0  1  0  0  1 -1 -1  1  0
   -1  0  1 -1  0  0 -1  1  0           |   -1  0  1 -1  0  0 -1  1  0
    1  0 -1  1  0  0  1 -1  0           |    1  0 -1  1  0  0  1 -1  0
    0  1  0  1  0  0  0  0  1           |    0  1  0  1  0  0  0  0  1
    0 -1  0 -1  0  0  0  0 -1           |    0 -1  0 -1  0  0  0  0 -1
    0  0 -1  0  1 -1  1  0 -1           |    0  0 -1  0  1 -1  1  0 -1
    0  0  1  0 -1  1 -1  0  1           |    0  0  1  0 -1  1 -1  0  1
    1 -1  0  0 -1  1  0 -1  0           |    1 -1  0  0 -1  1  0 -1  0
   -1  1  0  0  1 -1  0  1  0           |   -1  1  0  0  1 -1  0  1  0
    0  0  1  1  0  0  0  1  0           |    0  0  1  1  0  0  0  1  0
    0  0 -1 -1  0  0  0 -1  0           |    0  0 -1 -1  0  0  0 -1  0
   -1  1  0 -1  0  0 -1  0  1           |   -1  1  0 -1  0  0 -1  0  1
    1 -1  0  1  0  0  1  0 -1           |    1 -1  0  1  0  0  1  0 -1
    0  0  1  0  1  0  1  0  0           |    0  0  1  0  1  0  1  0  0
    0  0 -1  0 -1  0 -1  0  0           |    0  0 -1  0 -1  0 -1  0  0
    1 -1  0  0 -1  0  0 -1  1           |    1 -1  0  0 -1  0  0 -1  1
   -1  1  0  0  1  0  0  1 -1           |   -1  1  0  0  1  0  0  1 -1
    0  0 -1  1  0 -1  0  1 -1           |    0  0 -1  1  0 -1  0  1 -1
    0  0  1 -1  0  1  0 -1  1           |    0  0  1 -1  0  1  0 -1  1
   -1  1  0 -1  0  1 -1  0  0           |   -1  1  0 -1  0  1 -1  0  0
    1 -1  0  1  0 -1  1  0  0           |    1 -1  0  1  0 -1  1  0  0
  typat:                                |  typat:
    1  1                                |    1  1
  so_psp  :                             |  so_psp  :
    1                                   |    1
 
--- !COMMENT
src_file: m_hdr.F90
src_line: 4191
message: |
    input kptopt = 2  /= disk file kptopt = 1
...
 
  tnons:                                |  tnons:
     0.0000000   0.0000000   0.0000000  |     0.0000000   0.0000000   0.0000000
     0.2500000   0.2500000   0.2500000  |     0.2500000   0.2500000   0.2500000
     0.0000000   0.0000000   0.0000000  |     0.0000000   0.0000000   0.0000000
     0.2500000   0.2500000   0.2500000  |     0.2500000   0.2500000   0.2500000
     0.0000000   0.0000000   0.0000000  |     0.0000000   0.0000000   0.0000000
     0.2500000   0.2500000   0.2500000  |     0.2500000   0.2500000   0.2500000
     0.0000000   0.0000000   0.0000000  |     0.0000000   0.0000000   0.0000000
     0.2500000   0.2500000   0.2500000  |     0.2500000   0.2500000   0.2500000
     0.0000000   0.0000000   0.0000000  |     0.0000000   0.0000000   0.0000000
     0.2500000   0.2500000   0.2500000  |     0.2500000   0.2500000   0.2500000
[...]
              amu      2.80855000E+01
          dilatmx      1.05000000E+00
             ecut      4.00000000E+01 Hartree
           ecutsm      5.00000000E-01 Hartree
           etotal1    -8.4626235072E+00
           etotal2    -8.4792843935E+00
            fcart1     0.0000000000E+00  0.0000000000E+00  0.0000000000E+00
                       0.0000000000E+00  0.0000000000E+00  0.0000000000E+00
-          fftalg         312
           getwfk1          0
           getwfk2         -1
           ionmov           2
             iscf1          7
             iscf2         -3
              ixc          11
           jdtset        1    2
              kpt1    -8.33333333E-02 -1.66666667E-01  0.00000000E+00
                      -8.33333333E-02 -3.33333333E-01  0.00000000E+00
                      -1.66666667E-01 -2.50000000E-01  0.00000000E+00
                      -8.33333333E-02 -2.50000000E-01  8.33333333E-02
                      -8.33333333E-02  5.00000000E-01  0.00000000E+00
                      -1.66666667E-01 -4.16666667E-01  0.00000000E+00
                      -8.33333333E-02 -4.16666667E-01  8.33333333E-02
                      -2.50000000E-01 -3.33333333E-01  0.00000000E+00
                      -1.66666667E-01 -3.33333333E-01  8.33333333E-02
                      -8.33333333E-02 -3.33333333E-01  1.66666667E-01
                      -8.33333333E-02  3.33333333E-01  0.00000000E+00
                      -1.66666667E-01  4.16666667E-01  0.00000000E+00
                      -2.50000000E-01  5.00000000E-01  0.00000000E+00
                      -1.66666667E-01  5.00000000E-01  8.33333333E-02
                      -3.33333333E-01 -4.16666667E-01  0.00000000E+00
                      -2.50000000E-01 -4.16666667E-01  8.33333333E-02
                      -1.66666667E-01 -4.16666667E-01  1.66666667E-01
                      -8.33333333E-02 -4.16666667E-01  2.50000000E-01
                      -8.33333333E-02  1.66666667E-01  0.00000000E+00
                      -1.66666667E-01  2.50000000E-01  0.00000000E+00
                      -2.50000000E-01  3.33333333E-01  0.00000000E+00
                      -3.33333333E-01  4.16666667E-01  0.00000000E+00
                      -4.16666667E-01  5.00000000E-01  0.00000000E+00
                      -3.33333333E-01  5.00000000E-01  8.33333333E-02
                      -2.50000000E-01  5.00000000E-01  1.66666667E-01
                      -8.33333333E-02  0.00000000E+00  0.00000000E+00
                      -2.50000000E-01  0.00000000E+00  0.00000000E+00
                      -4.16666667E-01  0.00000000E+00  0.00000000E+00
              kpt2    -8.33333333E-02 -1.66666667E-01  0.00000000E+00
                      -1.66666667E-01 -8.33333333E-02  0.00000000E+00
                      -8.33333333E-02 -8.33333333E-02  8.33333333E-02
                      -8.33333333E-02 -3.33333333E-01  0.00000000E+00
                      -1.66666667E-01 -2.50000000E-01  0.00000000E+00
                      -8.33333333E-02 -2.50000000E-01  8.33333333E-02
                      -2.50000000E-01 -1.66666667E-01  0.00000000E+00
                      -1.66666667E-01 -1.66666667E-01  8.33333333E-02
                      -8.33333333E-02 -1.66666667E-01  1.66666667E-01
                      -3.33333333E-01 -8.33333333E-02  0.00000000E+00
                      -2.50000000E-01 -8.33333333E-02  8.33333333E-02
                      -1.66666667E-01 -8.33333333E-02  1.66666667E-01
                      -8.33333333E-02 -8.33333333E-02  2.50000000E-01
                      -8.33333333E-02  5.00000000E-01  0.00000000E+00
                      -1.66666667E-01 -4.16666667E-01  0.00000000E+00
                      -8.33333333E-02 -4.16666667E-01  8.33333333E-02
                      -2.50000000E-01 -3.33333333E-01  0.00000000E+00
                      -1.66666667E-01 -3.33333333E-01  8.33333333E-02
                      -8.33333333E-02 -3.33333333E-01  1.66666667E-01
                      -3.33333333E-01 -2.50000000E-01  0.00000000E+00
                      -2.50000000E-01 -2.50000000E-01  8.33333333E-02
                      -1.66666667E-01 -2.50000000E-01  1.66666667E-01
                      -8.33333333E-02 -2.50000000E-01  2.50000000E-01
                      -4.16666667E-01 -1.66666667E-01  0.00000000E+00
                      -3.33333333E-01 -1.66666667E-01  8.33333333E-02
                      -2.50000000E-01 -1.66666667E-01  1.66666667E-01
                      -1.66666667E-01 -1.66666667E-01  2.50000000E-01
                      -8.33333333E-02 -1.66666667E-01  3.33333333E-01
                       5.00000000E-01 -8.33333333E-02  0.00000000E+00
                      -4.16666667E-01 -8.33333333E-02  8.33333333E-02
                      -3.33333333E-01 -8.33333333E-02  1.66666667E-01
                      -2.50000000E-01 -8.33333333E-02  2.50000000E-01
                      -1.66666667E-01 -8.33333333E-02  3.33333333E-01
                      -8.33333333E-02 -8.33333333E-02  4.16666667E-01
                      -8.33333333E-02  3.33333333E-01  0.00000000E+00
                      -1.66666667E-01  4.16666667E-01  0.00000000E+00
                      -8.33333333E-02  4.16666667E-01  8.33333333E-02
                      -2.50000000E-01  5.00000000E-01  0.00000000E+00
                      -1.66666667E-01  5.00000000E-01  8.33333333E-02
                      -8.33333333E-02  5.00000000E-01  1.66666667E-01
                      -3.33333333E-01 -4.16666667E-01  0.00000000E+00
                      -2.50000000E-01 -4.16666667E-01  8.33333333E-02
                      -1.66666667E-01 -4.16666667E-01  1.66666667E-01
                      -8.33333333E-02 -4.16666667E-01  2.50000000E-01
                      -4.16666667E-01 -3.33333333E-01  0.00000000E+00
                      -3.33333333E-01 -3.33333333E-01  8.33333333E-02
                      -2.50000000E-01 -3.33333333E-01  1.66666667E-01
                      -1.66666667E-01 -3.33333333E-01  2.50000000E-01
                      -8.33333333E-02 -3.33333333E-01  3.33333333E-01
                       5.00000000E-01 -2.50000000E-01  0.00000000E+00
                       outvar_i_n : Printing only first  50 k-points.
           kptopt1          1
           kptopt2          2
         kptrlatt        6   -6    6     -6    6    6     -6   -6    6
          kptrlen      6.20156511E+01
P           mkmem1          3
P           mkmem2         44
P          mkqmem1          3
P          mkqmem2         44
P          mk1mem1          3
P          mk1mem2         44
            natom           2
            nband1          6
            nband2          6
           ndtset           2
            ngfft          45      45      45
             nkpt1         28
             nkpt2        432
             nqpt1          0
             nqpt2          1
             nsym          48
            ntime          15
           ntypat           1
              occ1     2.000000  2.000000  2.000000  2.000000  0.000000  0.000000
              occ2     2.000000  2.000000  2.000000  2.000000  0.000000  0.000000
          optcell           2
        optdriver1          0
        optdriver2          1
          rfatpol           1       2
            rfdir1          0       0       0
            rfdir2          1       1       1
           rfelfd1          0
           rfelfd2          2
            rprim1     7.0710678119E-01  7.0710678119E-01  0.0000000000E+00
                       0.0000000000E+00  7.0710678119E-01  7.0710678119E-01
                       7.0710678119E-01  0.0000000000E+00  7.0710678119E-01
            rprim2     5.0000000000E-01  5.0000000000E-01  0.0000000000E+00
                       0.0000000000E+00  5.0000000000E-01  5.0000000000E-01
                       5.0000000000E-01  0.0000000000E+00  5.0000000000E-01
           shiftk      5.00000000E-01  5.00000000E-01  5.00000000E-01
          spgroup         227
           strten1     2.4736648493E-11  2.4736650662E-11  2.4736649361E-11
                       0.0000000000E+00  0.0000000000E+00  0.0000000000E+00
           symrel      1  0  0   0  1  0   0  0  1      -1  0  0   0 -1  0   0  0 -1
                       0 -1  1   0 -1  0   1 -1  0       0  1 -1   0  1  0  -1  1  0
                      -1  0  0  -1  0  1  -1  1  0       1  0  0   1  0 -1   1 -1  0
                       0  1 -1   1  0 -1   0  0 -1       0 -1  1  -1  0  1   0  0  1
                      -1  0  0  -1  1  0  -1  0  1       1  0  0   1 -1  0   1  0 -1
                       0 -1  1   1 -1  0   0 -1  0       0  1 -1  -1  1  0   0  1  0
                       1  0  0   0  0  1   0  1  0      -1  0  0   0  0 -1   0 -1  0
                       0  1 -1   0  0 -1   1  0 -1       0 -1  1   0  0  1  -1  0  1
                      -1  0  1  -1  1  0  -1  0  0       1  0 -1   1 -1  0   1  0  0
                       0 -1  0   1 -1  0   0 -1  1       0  1  0  -1  1  0   0  1 -1
                       1  0 -1   0  0 -1   0  1 -1      -1  0  1   0  0  1   0 -1  1
                       0  1  0   0  0  1   1  0  0       0 -1  0   0  0 -1  -1  0  0
                       1  0 -1   0  1 -1   0  0 -1      -1  0  1   0 -1  1   0  0  1
                       0 -1  0   0 -1  1   1 -1  0       0  1  0   0  1 -1  -1  1  0
                      -1  0  1  -1  0  0  -1  1  0       1  0 -1   1  0  0   1 -1  0
                       0  1  0   1  0  0   0  0  1       0 -1  0  -1  0  0   0  0 -1
                       0  0 -1   0  1 -1   1  0 -1       0  0  1   0 -1  1  -1  0  1
                       1 -1  0   0 -1  1   0 -1  0      -1  1  0   0  1 -1   0  1  0
                       0  0  1   1  0  0   0  1  0       0  0 -1  -1  0  0   0 -1  0
                      -1  1  0  -1  0  0  -1  0  1       1 -1  0   1  0  0   1  0 -1
                       0  0  1   0  1  0   1  0  0       0  0 -1   0 -1  0  -1  0  0
                       1 -1  0   0 -1  0   0 -1  1      -1  1  0   0  1  0   0  1 -1
                       0  0 -1   1  0 -1   0  1 -1       0  0  1  -1  0  1   0 -1  1
                      -1  1  0  -1  0  1  -1  0  0       1 -1  0   1  0 -1   1  0  0
            tnons      0.0000000  0.0000000  0.0000000     0.2500000  0.2500000  0.2500000
                       0.0000000  0.0000000  0.0000000     0.2500000  0.2500000  0.2500000
                       0.0000000  0.0000000  0.0000000     0.2500000  0.2500000  0.2500000
                       0.0000000  0.0000000  0.0000000     0.2500000  0.2500000  0.2500000
                       0.0000000  0.0000000  0.0000000     0.2500000  0.2500000  0.2500000
                       0.0000000  0.0000000  0.0000000     0.2500000  0.2500000  0.2500000
                       0.0000000  0.0000000  0.0000000     0.2500000  0.2500000  0.2500000
                       0.0000000  0.0000000  0.0000000     0.2500000  0.2500000  0.2500000
                       0.0000000  0.0000000  0.0000000     0.2500000  0.2500000  0.2500000
                       0.0000000  0.0000000  0.0000000     0.2500000  0.2500000  0.2500000
                       0.0000000  0.0000000  0.0000000     0.2500000  0.2500000  0.2500000
                       0.0000000  0.0000000  0.0000000     0.2500000  0.2500000  0.2500000
                       0.0000000  0.0000000  0.0000000     0.2500000  0.2500000  0.2500000
                       0.0000000  0.0000000  0.0000000     0.2500000  0.2500000  0.2500000
                       0.0000000  0.0000000  0.0000000     0.2500000  0.2500000  0.2500000
                       0.0000000  0.0000000  0.0000000     0.2500000  0.2500000  0.2500000
                       0.0000000  0.0000000  0.0000000     0.2500000  0.2500000  0.2500000
                       0.0000000  0.0000000  0.0000000     0.2500000  0.2500000  0.2500000
                       0.0000000  0.0000000  0.0000000     0.2500000  0.2500000  0.2500000
                       0.0000000  0.0000000  0.0000000     0.2500000  0.2500000  0.2500000
                       0.0000000  0.0000000  0.0000000     0.2500000  0.2500000  0.2500000
                       0.0000000  0.0000000  0.0000000     0.2500000  0.2500000  0.2500000
                       0.0000000  0.0000000  0.0000000     0.2500000  0.2500000  0.2500000
                       0.0000000  0.0000000  0.0000000     0.2500000  0.2500000  0.2500000
           tolmxf      1.00000000E-08
           tolvrs1     1.00000000E-10
           tolvrs2     0.00000000E+00
           tolwfr1     0.00000000E+00
           tolwfr2     1.00000000E-20
            typat      1  1
              wtk1       0.02778    0.02778    0.02778    0.05556    0.02778    0.02778
                         0.05556    0.02778    0.05556    0.05556    0.02778    0.02778
                         0.02778    0.05556    0.02778    0.05556    0.05556    0.05556
                         0.02778    0.02778    0.02778    0.02778    0.02778    0.05556
                         0.05556    0.00926    0.00926    0.00926
              wtk2       0.00231    0.00231    0.00231    0.00231    0.00231    0.00231
                         0.00231    0.00231    0.00231    0.00231    0.00231    0.00231
                         0.00231    0.00231    0.00231    0.00231    0.00231    0.00231
                         0.00231    0.00231    0.00231    0.00231    0.00231    0.00231
                         0.00231    0.00231    0.00231    0.00231    0.00231    0.00231
                         0.00231    0.00231    0.00231    0.00231    0.00231    0.00231
                         0.00231    0.00231    0.00231    0.00231    0.00231    0.00231
                         0.00231    0.00231    0.00231    0.00231    0.00231    0.00231
                         0.00231    0.00231
                       outvars : Printing only first  50 k-points.
           xangst1     0.0000000000E+00  0.0000000000E+00  0.0000000000E+00
                       1.3672335628E+00  1.3672335628E+00  1.3672335628E+00
           xangst2     0.0000000000E+00  0.0000000000E+00  0.0000000000E+00
                       1.3673862150E+00  1.3673862150E+00  1.3673862150E+00
            xcart1     0.0000000000E+00  0.0000000000E+00  0.0000000000E+00
                       2.5836969934E+00  2.5836969934E+00  2.5836969934E+00
            xcart2     0.0000000000E+00  0.0000000000E+00  0.0000000000E+00
                       2.5839854642E+00  2.5839854642E+00  2.5839854642E+00
             xred      0.0000000000E+00  0.0000000000E+00  0.0000000000E+00
                       2.5000000000E-01  2.5000000000E-01  2.5000000000E-01
            znucl       14.00000
 
================================================================================
  

================================================================================

 Suggested references for the acknowledgment of ABINIT usage.

 The users of ABINIT have little formal obligations with respect to the ABINIT group
 (those specified in the GNU General Public License, http://www.gnu.org/copyleft/gpl.txt).
 However, it is common practice in the scientific literature,
 to acknowledge the efforts of people that have made the research possible.
 In this spirit, please find below suggested citations of work written by ABINIT developers,
 corresponding to implementations inside of ABINIT that you have used in the present run.
 Note also that it will be of great value to readers of publications presenting these results,
 to read papers enabling them to understand the theoretical formalism and details
 of the ABINIT implementation.
 For information on why they are suggested, see also https://docs.abinit.org/theory/acknowledgments.
-
- [1] Recent developments in the ABINIT software package.
- Computer Phys. Comm. 205, 106 (2016).
- X.Gonze, F.Jollet, F.Abreu Araujo, D.Adams, B.Amadon, T.Applencourt,
- C.Audouze, J.-M.Beuken, J.Bieder, A.Bokhanchuk, E.Bousquet, F.Bruneval
- D.Caliste, M.Cote, F.Dahm, F.Da Pieve, M.Delaveau, M.Di Gennaro,
- B.Dorado, C.Espejo, G.Geneste, L.Genovese, A.Gerossier, M.Giantomassi,
- Y.Gillet, D.R.Hamann, L.He, G.Jomard, J.Laflamme Janssen, S.Le Roux,
- A.Levitt, A.Lherbier, F.Liu, I.Lukacevic, A.Martin, C.Martins,
- M.J.T.Oliveira, S.Ponce, Y.Pouillon, T.Rangel, G.-M.Rignanese,
- A.H.Romero, B.Rousseau, O.Rubel, A.A.Shukri, M.Stankovski, M.Torrent,
- M.J.Van Setten, B.Van Troeye, M.J.Verstraete, D.Waroquier, J.Wiktor,
- B.Xu, A.Zhou, J.W.Zwanziger.
- Comment: the fourth generic paper describing the ABINIT project.
- Note that a version of this paper, that is not formatted for Computer Phys. Comm. 
- is available at https://www.abinit.org/about/ABINIT16.pdf .
- The licence allows the authors to put it on the Web.
- DOI and bibtex: see https://docs.abinit.org/theory/bibliography/#gonze2016
-
- [2] First-principles responses of solids to atomic displacements and homogeneous electric fields:,
- implementation of a conjugate-gradient algorithm. X. Gonze, Phys. Rev. B55, 10337 (1997).
- Comment: Non-vanishing rfphon and/or rfelfd, in the norm-conserving case.
- DOI and bibtex: see https://docs.abinit.org/theory/bibliography/#gonze1997
-
- [3] Dynamical matrices, Born effective charges, dielectric permittivity tensors, and ,
- interatomic force constants from density-functional perturbation theory,
- X. Gonze and C. Lee, Phys. Rev. B55, 10355 (1997).
- Comment: Non-vanishing rfphon and/or rfelfd, in the norm-conserving case.
- DOI and bibtex: see https://docs.abinit.org/theory/bibliography/#gonze1997a
-
- [4] Optimized norm-conserving Vanderbilt pseudopotentials.
- D.R. Hamann, Phys. Rev. B 88, 085117 (2013).
- Comment: Some pseudopotential generated using the ONCVPSP code were used.
- DOI and bibtex: see https://docs.abinit.org/theory/bibliography/#hamann2013
-
- [5] ABINIT: First-principles approach of materials and nanosystem properties.
- Computer Phys. Comm. 180, 2582-2615 (2009).
- X. Gonze, B. Amadon, P.-M. Anglade, J.-M. Beuken, F. Bottin, P. Boulanger, F. Bruneval,
- D. Caliste, R. Caracas, M. Cote, T. Deutsch, L. Genovese, Ph. Ghosez, M. Giantomassi
- S. Goedecker, D.R. Hamann, P. Hermet, F. Jollet, G. Jomard, S. Leroux, M. Mancini, S. Mazevet,
- M.J.T. Oliveira, G. Onida, Y. Pouillon, T. Rangel, G.-M. Rignanese, D. Sangalli, R. Shaltaf,
- M. Torrent, M.J. Verstraete, G. Zerah, J.W. Zwanziger
- Comment: the third generic paper describing the ABINIT project.
- Note that a version of this paper, that is not formatted for Computer Phys. Comm. 
- is available at https://www.abinit.org/about/ABINIT_CPC_v10.pdf .
- The licence allows the authors to put it on the Web.
- DOI and bibtex: see https://docs.abinit.org/theory/bibliography/#gonze2009
-
- [6] A brief introduction to the ABINIT software package.
- Z. Kristallogr. 220, 558-562 (2005).
- X. Gonze, G.-M. Rignanese, M. Verstraete, J.-M. Beuken, Y. Pouillon, R. Caracas, F. Jollet,
- M. Torrent, G. Zerah, M. Mikami, Ph. Ghosez, M. Veithen, J.-Y. Raty, V. Olevano, F. Bruneval,
- L. Reining, R. Godby, G. Onida, D.R. Hamann, and D.C. Allan.
- Comment: the second generic paper describing the ABINIT project. Note that this paper
- should be cited especially if you are using the GW part of ABINIT, as several authors
- of this part are not in the list of authors of the first or third paper.
- The .pdf of the latter paper is available at https://www.abinit.org/about/zfk_0505-06_558-562.pdf.
- Note that it should not redistributed (Copyright by Oldenburg Wissenshaftverlag,
- the licence allows the authors to put it on the Web).
- DOI and bibtex: see https://docs.abinit.org/theory/bibliography/#gonze2005
 Proc.   0 individual time (sec): cpu=        475.4  wall=        556.2
 
 Calculation completed.
.Delivered   4 WARNINGs and   0 COMMENTs to log file.

--- !FinalSummary
program: abinit
version: 8.11.13
start_datetime: Wed Jan 08 16:52:10 2020
end_datetime: Wed Jan 08 17:01:26 2020
overall_cpu_time:        4443.9
overall_wall_time:        5561.5
exit_requested_by_user: no 
timelimit: 0
pseudos: 
    Si  : 45c393525680abc7b25445b8ec62bf83
usepaw: 0
mpi_procs: 10
omp_threads: 1
num_warnings: 4
num_comments: 0
...
