
.Version 8.11.13 of ABINIT 
.(MPI version, prepared for a x86_64_linux_intel14.0 computer) 

.Copyright (C) 1998-2019 ABINIT group . 
 ABINIT comes with ABSOLUTELY NO WARRANTY.
 It is free software, and you are welcome to redistribute it
 under certain conditions (GNU General Public License,
 see ~abinit/COPYING or http://www.gnu.org/copyleft/gpl.txt).

 ABINIT is a project of the Universite Catholique de Louvain,
 Corning Inc. and other collaborators, see ~abinit/doc/developers/contributors.txt .
 Please read https://docs.abinit.org/theory/acknowledgments for suggested
 acknowledgments of the ABINIT effort.
 For more information, see https://www.abinit.org .

.Starting date : Fri 10 Jan 2020.
- ( at 12h11 )
  
- input  file    -> opt.in
- output file    -> opt.out
- root for input  files -> opti
- root for output files -> opto
 
 
 Symmetries : space group Im m a (# 74); Bravais oI (body-center ortho.)
================================================================================
 Values of the parameters that define the memory need of the present run
     intxc =       0    ionmov =       2      iscf =       7    lmnmax =       6
     lnmax =       6     mgfft =      16  mpssoang =       3    mqgrid =    3001
     natom =       2  nloc_mem =       1    nspden =       1   nspinor =       1
    nsppol =       1      nsym =       8    n1xccc =    2501    ntypat =       1
    occopt =       1   xclevel =       2
-    mband =           6        mffmem =           1         mkmem =           1
       mpw =         164          nfft =        4096          nkpt =           6
================================================================================
P This job should need less than                       2.060 Mbytes of memory.
  Rough estimation (10% accuracy) of disk space for files :
_ WF disk file :      0.092 Mbytes ; DEN or POT disk file :      0.033 Mbytes.
================================================================================
 
--------------------------------------------------------------------------------
------------- Echo of variables that govern the present computation ------------
--------------------------------------------------------------------------------
-
- outvars: echo of selected default values                                      
-   iomode0 =  0 , fftalg0 =312 , wfoptalg0 =  0
-
- outvars: echo of global parameters not present in the input file              
-  max_nthreads =    0
-
 -outvars: echo values of preprocessed input variables --------
            acell      1.1338356797E+01  1.1338356797E+01  1.1338356797E+01 Bohr
              amu      2.80855000E+01
          dilatmx      1.05000000E+00
             ecut      4.00000000E+00 Hartree
           ecutsm      5.00000000E-01 Hartree
-          fftalg         312
           ionmov           2
              ixc          11
              kpt     -2.50000000E-01  5.00000000E-01  0.00000000E+00
                       5.00000000E-01 -2.50000000E-01  0.00000000E+00
                      -2.50000000E-01  0.00000000E+00  0.00000000E+00
                       0.00000000E+00 -2.50000000E-01  0.00000000E+00
                       2.50000000E-01 -2.50000000E-01  2.50000000E-01
                       5.00000000E-01  0.00000000E+00  2.50000000E-01
         kptrlatt        2   -2    2     -2    2    2     -2   -2    2
          kptrlen      2.26767136E+01
P           mkmem           1
            natom           2
            nband           6
            ngfft          16      16      16
             nkpt           6
             nsym           8
            ntime          15
           ntypat           1
              occ      2.000000  2.000000  2.000000  2.000000  0.000000  0.000000
          optcell           2
            rprim      5.0000000000E-01  5.0000000000E-01  0.0000000000E+00
                       0.0000000000E+00  5.0000000000E-01  5.0000000000E-01
                       5.0000000000E-01  0.0000000000E+00  5.0000000000E-01
           shiftk      5.00000000E-01  5.00000000E-01  5.00000000E-01
          spgroup          74
           symrel      1  0  0   0  1  0   0  0  1      -1  0  0   0 -1  0   0  0 -1
                       0 -1  1   0 -1  0   1 -1  0       0  1 -1   0  1  0  -1  1  0
                       0  0  1   0  1  0   1  0  0       0  0 -1   0 -1  0  -1  0  0
                       1 -1  0   0 -1  0   0 -1  1      -1  1  0   0  1  0   0  1 -1
            tnons      0.0000000  0.0000000  0.0000000     0.2400000  0.2600000  0.2400000
                       0.0000000  0.0000000  0.0000000     0.2400000  0.2600000  0.2400000
                       0.0000000  0.0000000  0.0000000     0.2400000  0.2600000  0.2400000
                       0.0000000  0.0000000  0.0000000     0.2400000  0.2600000  0.2400000
           tolmxf      1.00000000E-08
           tolvrs      1.00000000E-10
            typat      1  1
              wtk        0.25000    0.25000    0.12500    0.12500    0.12500    0.12500
           xangst      0.0000000000E+00  0.0000000000E+00  0.0000000000E+00
                       1.4400000000E+00  1.5000000000E+00  1.5000000000E+00
            xcart      0.0000000000E+00  0.0000000000E+00  0.0000000000E+00
                       2.7212056314E+00  2.8345891993E+00  2.8345891993E+00
             xred      0.0000000000E+00  0.0000000000E+00  0.0000000000E+00
                       2.4000000000E-01  2.6000000000E-01  2.4000000000E-01
            znucl       14.00000
 
================================================================================
 
 chkinp: Checking input parameters for consistency.
 
 chkinp: WARNING -
   Chksymbreak=1 . Found potentially symmetry-breaking value of tnons, 
   which is neither a rational fraction in 1/8th nor in 1/12th :
   for the symmetry number    2
   symrel is  -1  0  0  0 -1  0  0  0 -1
   tnons is     2.400000E-01    2.600000E-01    2.400000E-01
   Please, read the description of the input variable chksymbreak,
   then, if you feel confident, you might switch it to zero, or consult with the forum.
 
 chkinp: WARNING -
   Chksymbreak=1 . Found potentially symmetry-breaking value of tnons, 
   which is neither a rational fraction in 1/8th nor in 1/12th :
   for the symmetry number    2
   symrel is  -1  0  0  0 -1  0  0  0 -1
   tnons is     2.400000E-01    2.600000E-01    2.400000E-01
   Please, read the description of the input variable chksymbreak,
   then, if you feel confident, you might switch it to zero, or consult with the forum.
 
 chkinp: WARNING -
   Chksymbreak=1 . Found potentially symmetry-breaking value of tnons, 
   which is neither a rational fraction in 1/8th nor in 1/12th :
   for the symmetry number    2
   symrel is  -1  0  0  0 -1  0  0  0 -1
   tnons is     2.400000E-01    2.600000E-01    2.400000E-01
   Please, read the description of the input variable chksymbreak,
   then, if you feel confident, you might switch it to zero, or consult with the forum.
 
 chkinp: WARNING -
   Chksymbreak=1 . Found potentially symmetry-breaking value of tnons, 
   which is neither a rational fraction in 1/8th nor in 1/12th :
   for the symmetry number    4
   symrel is   0  1 -1  0  1  0 -1  1  0
   tnons is     2.400000E-01    2.600000E-01    2.400000E-01
   Please, read the description of the input variable chksymbreak,
   then, if you feel confident, you might switch it to zero, or consult with the forum.
 
 chkinp: WARNING -
   Chksymbreak=1 . Found potentially symmetry-breaking value of tnons, 
   which is neither a rational fraction in 1/8th nor in 1/12th :
   for the symmetry number    4
   symrel is   0  1 -1  0  1  0 -1  1  0
   tnons is     2.400000E-01    2.600000E-01    2.400000E-01
   Please, read the description of the input variable chksymbreak,
   then, if you feel confident, you might switch it to zero, or consult with the forum.
 
 chkinp: WARNING -
   Chksymbreak=1 . Found potentially symmetry-breaking value of tnons, 
   which is neither a rational fraction in 1/8th nor in 1/12th :
   for the symmetry number    4
   symrel is   0  1 -1  0  1  0 -1  1  0
   tnons is     2.400000E-01    2.600000E-01    2.400000E-01
   Please, read the description of the input variable chksymbreak,
   then, if you feel confident, you might switch it to zero, or consult with the forum.
 
 chkinp: WARNING -
   Chksymbreak=1 . Found potentially symmetry-breaking value of tnons, 
   which is neither a rational fraction in 1/8th nor in 1/12th :
   for the symmetry number    6
   symrel is   0  0 -1  0 -1  0 -1  0  0
   tnons is     2.400000E-01    2.600000E-01    2.400000E-01
   Please, read the description of the input variable chksymbreak,
   then, if you feel confident, you might switch it to zero, or consult with the forum.
 
 chkinp: WARNING -
   Chksymbreak=1 . Found potentially symmetry-breaking value of tnons, 
   which is neither a rational fraction in 1/8th nor in 1/12th :
   for the symmetry number    6
   symrel is   0  0 -1  0 -1  0 -1  0  0
   tnons is     2.400000E-01    2.600000E-01    2.400000E-01
   Please, read the description of the input variable chksymbreak,
   then, if you feel confident, you might switch it to zero, or consult with the forum.
 
 chkinp: WARNING -
   Chksymbreak=1 . Found potentially symmetry-breaking value of tnons, 
   which is neither a rational fraction in 1/8th nor in 1/12th :
   for the symmetry number    6
   symrel is   0  0 -1  0 -1  0 -1  0  0
   tnons is     2.400000E-01    2.600000E-01    2.400000E-01
   Please, read the description of the input variable chksymbreak,
   then, if you feel confident, you might switch it to zero, or consult with the forum.
 
 chkinp: WARNING -
   Chksymbreak=1 . Found potentially symmetry-breaking value of tnons, 
   which is neither a rational fraction in 1/8th nor in 1/12th :
   for the symmetry number    8
   symrel is  -1  1  0  0  1  0  0  1 -1
   tnons is     2.400000E-01    2.600000E-01    2.400000E-01
   Please, read the description of the input variable chksymbreak,
   then, if you feel confident, you might switch it to zero, or consult with the forum.
 
 chkinp: WARNING -
   Chksymbreak=1 . Found potentially symmetry-breaking value of tnons, 
   which is neither a rational fraction in 1/8th nor in 1/12th :
   for the symmetry number    8
   symrel is  -1  1  0  0  1  0  0  1 -1
   tnons is     2.400000E-01    2.600000E-01    2.400000E-01
   Please, read the description of the input variable chksymbreak,
   then, if you feel confident, you might switch it to zero, or consult with the forum.
 
 chkinp: WARNING -
   Chksymbreak=1 . Found potentially symmetry-breaking value of tnons, 
   which is neither a rational fraction in 1/8th nor in 1/12th :
   for the symmetry number    8
   symrel is  -1  1  0  0  1  0  0  1 -1
   tnons is     2.400000E-01    2.600000E-01    2.400000E-01
   Please, read the description of the input variable chksymbreak,
   then, if you feel confident, you might switch it to zero, or consult with the forum.
 
================================================================================
== DATASET  1 ==================================================================
-   nproc =    6
 
 Exchange-correlation functional for the present dataset will be:
  GGA: Perdew-Burke-Ernzerhof functional - ixc=11
 Citation for XC functional:
  J.P.Perdew, K.Burke, M.Ernzerhof, PRL 77, 3865 (1996)
 
 Real(R)+Recip(G) space primitive vectors, cartesian coordinates (Bohr,Bohr^-1):
 R(1)=  5.6691784  5.6691784  0.0000000  G(1)=  0.0881962  0.0881962 -0.0881962
 R(2)=  0.0000000  5.6691784  5.6691784  G(2)= -0.0881962  0.0881962  0.0881962
 R(3)=  5.6691784  0.0000000  5.6691784  G(3)=  0.0881962 -0.0881962  0.0881962
 Unit cell volume ucvol=  3.6441007E+02 bohr^3
 Angles (23,13,12)=  6.00000000E+01  6.00000000E+01  6.00000000E+01 degrees
 
 getcut: wavevector=  0.0000  0.0000  0.0000  ngfft=  16  16  16
         ecut(hartree)=      4.410   => boxcut(ratio)=   2.11106
 
--- Pseudopotential description ------------------------------------------------
- pspini: atom type   1  psp file is /CECI/home/ucl/naps/jovbever/.PsP/Si/Si.psp8
- pspatm: opening atomic psp file    /CECI/home/ucl/naps/jovbever/.PsP/Si/Si.psp8
- Si    ONCVPSP-3.2.3.1  r_core=   1.60303   1.72197   1.91712
- 14.00000   4.00000    170510                znucl, zion, pspdat
    8   11    2    4       600   0.00000      pspcod,pspxc,lmax,lloc,mmax,r2well
    5.99000000000000    4.00000000000000    0.00000000000000   rchrg,fchrg,qchrg
     nproj     2     2     2
     extension_switch     1
  pspatm : epsatm=    9.34321699
         --- l  ekb(1:nproj) -->
             0    5.168965    0.829883
             1    2.571282    0.578307
             2   -2.427311   -0.488097
 pspatm: atomic psp has been read  and splines computed
 
   1.49491472E+02                                ecore*ucvol(ha*bohr**3)
--------------------------------------------------------------------------------
 
_setup2: Arith. and geom. avg. npw (full set) are     163.500     163.498
 
================================================================================
 
=== [ionmov= 2] Broyden-Fletcher-Goldfard-Shanno method (forces)            
================================================================================
 
--- Iteration: ( 1/15) Internal Cycle: (1/1)
--------------------------------------------------------------------------------
 
---SELF-CONSISTENT-FIELD CONVERGENCE--------------------------------------------
 
     iter   Etot(hartree)      deltaE(h)  residm     vres2
 ETOT  1  -8.3455629907548    -8.346E+00 2.436E-03 4.026E-01
 ETOT  2  -8.3461042629063    -5.413E-04 2.435E-04 2.010E-02
 ETOT  3  -8.3461134887487    -9.226E-06 6.289E-05 3.385E-03
 ETOT  4  -8.3461160293920    -2.541E-06 4.836E-05 9.671E-05
 ETOT  5  -8.3461161181337    -8.874E-08 1.069E-05 2.404E-07
 ETOT  6  -8.3461161183851    -2.514E-10 9.098E-06 1.897E-09
 ETOT  7  -8.3461161183866    -1.481E-12 1.989E-06 3.066E-11
 
 At SCF step    7       vres2   =  3.07E-11 < tolvrs=  1.00E-10 =>converged.
 
 Cartesian components of stress tensor (hartree/bohr^3)
  sigma(1 1)=  4.83803581E-04  sigma(3 2)= -2.09780713E-06
  sigma(2 2)=  4.82856459E-04  sigma(3 1)=  0.00000000E+00
  sigma(3 3)=  4.82856459E-04  sigma(2 1)=  0.00000000E+00
 
 Integrated electronic density in atomic spheres:
 ------------------------------------------------
 Atom  Sphere_radius  Integrated_density
    1        2.00000          1.45243067
    2        2.00000          1.46972924
 
---OUTPUT-----------------------------------------------------------------------
 
 Cartesian coordinates (xcart) [bohr]
  0.00000000000000E+00  0.00000000000000E+00  0.00000000000000E+00
  2.72120563135533E+00  2.83458919932846E+00  2.83458919932846E+00
 Reduced coordinates (xred)
  0.00000000000000E+00  0.00000000000000E+00  0.00000000000000E+00
  2.40000000000000E-01  2.60000000000000E-01  2.40000000000000E-01
 Cartesian forces (fcart) [Ha/bohr]; max,rms= 9.01812E-03 5.20661E-03 (free atoms)
 -9.01811531533360E-03  0.00000000000000E+00  0.00000000000000E+00
  9.01811531533360E-03  0.00000000000000E+00  0.00000000000000E+00
 Reduced forces (fred)
  5.11253045422865E-02  0.00000000000000E+00  5.11253045422865E-02
 -5.11253045422865E-02  0.00000000000000E+00 -5.11253045422865E-02
 Scale of Primitive Cell (acell) [bohr]
  1.13383567973139E+01  1.13383567973139E+01  1.13383567973139E+01
 Real space primitive translations (rprimd) [bohr]
  5.66917839865693E+00  5.66917839865693E+00  0.00000000000000E+00
  0.00000000000000E+00  5.66917839865693E+00  5.66917839865693E+00
  5.66917839865693E+00  0.00000000000000E+00  5.66917839865693E+00
 Unitary Cell Volume (ucvol) [Bohr^3]=  3.64410067486860E+02
 Angles (23,13,12)= [degrees]
  6.00000000000000E+01  6.00000000000000E+01  6.00000000000000E+01
 Lengths [Bohr]
  8.01742897889321E+00  8.01742897889321E+00  8.01742897889321E+00
 Stress tensor in cartesian coordinates (strten) [Ha/bohr^3]
  4.83803581484636E-04  0.00000000000000E+00  0.00000000000000E+00
  0.00000000000000E+00  4.82856459120909E-04 -2.09780713035458E-06
  0.00000000000000E+00 -2.09780713035458E-06  4.82856459120909E-04
 Total energy (etotal) [Ha]= -8.34611611838656E+00
 
--- Iteration: ( 2/15) Internal Cycle: (1/1)
--------------------------------------------------------------------------------
 
---SELF-CONSISTENT-FIELD CONVERGENCE--------------------------------------------
 
     iter   Etot(hartree)      deltaE(h)  residm     vres2
 ETOT  1  -8.3530559282501    -8.353E+00 4.960E-04 2.367E-01
 ETOT  2  -8.3533339777400    -2.780E-04 4.092E-07 2.614E-02
 ETOT  3  -8.3533621589010    -2.818E-05 1.839E-06 2.222E-03
 ETOT  4  -8.3533640010377    -1.842E-06 7.358E-07 1.891E-05
 ETOT  5  -8.3533640076173    -6.580E-09 1.657E-08 1.021E-07
 ETOT  6  -8.3533640076461    -2.878E-11 7.643E-09 1.326E-09
 ETOT  7  -8.3533640076465    -3.997E-13 3.304E-10 2.559E-11
 
 At SCF step    7       vres2   =  2.56E-11 < tolvrs=  1.00E-10 =>converged.
 
 Cartesian components of stress tensor (hartree/bohr^3)
  sigma(1 1)=  4.19463987E-04  sigma(3 2)= -6.11572549E-06
  sigma(2 2)=  4.18784865E-04  sigma(3 1)=  0.00000000E+00
  sigma(3 3)=  4.18784865E-04  sigma(2 1)=  0.00000000E+00
 
 Integrated electronic density in atomic spheres:
 ------------------------------------------------
 Atom  Sphere_radius  Integrated_density
    1        2.00000          1.45593726
    2        2.00000          1.49558172
 
---OUTPUT-----------------------------------------------------------------------
 
 Cartesian coordinates (xcart) [bohr]
 -8.88722542069960E-03  4.10599221181522E-19  0.00000000000000E+00
  2.69059698586385E+00  2.79388499349900E+00  2.79388499349900E+00
 Reduced coordinates (xred)
 -7.95363514885160E-04  7.95363514885160E-04 -7.95363514885160E-04
  2.40795363514885E-01  2.59204636485115E-01  2.40795363514885E-01
 Cartesian forces (fcart) [Ha/bohr]; max,rms= 8.01886E-03 4.62969E-03 (free atoms)
 -8.01886016417437E-03  0.00000000000000E+00  0.00000000000000E+00
  8.01886016417437E-03  0.00000000000000E+00  0.00000000000000E+00
 Reduced forces (fred)
  4.48005324372816E-02  0.00000000000000E+00  4.48005324372816E-02
 -4.48005324372816E-02  0.00000000000000E+00 -4.48005324372816E-02
 Scale of Primitive Cell (acell) [bohr]
  7.90117708860185E+00  7.90230009903390E+00  7.90117708860185E+00
 Real space primitive translations (rprimd) [bohr]
  5.58689533425656E+00  5.58705641642592E+00  7.13570572077174E-04
  0.00000000000000E+00  5.58776998699800E+00  5.58776998699800E+00
  5.58689533425656E+00  7.13570572077182E-04  5.58705641642592E+00
 Unitary Cell Volume (ucvol) [Bohr^3]=  3.48792098085636E+02
 Angles (23,13,12)= [degrees]
  5.99952981985168E+01  5.99925036997734E+01  5.99952981985168E+01
 Lengths [Bohr]
  7.90117708860185E+00  7.90230009903390E+00  7.90117708860185E+00
 Stress tensor in cartesian coordinates (strten) [Ha/bohr^3]
  4.19463986592835E-04  0.00000000000000E+00  0.00000000000000E+00
  0.00000000000000E+00  4.18784865129137E-04 -6.11572548946799E-06
  0.00000000000000E+00 -6.11572548946799E-06  4.18784865129137E-04
 Total energy (etotal) [Ha]= -8.35336400764648E+00
 
 Difference of energy with previous step (new-old):
           Absolute (Ha)=-7.24789E-03
           Relative     =-8.68038E-04
 
--- Iteration: ( 3/15) Internal Cycle: (1/1)
--------------------------------------------------------------------------------
 
---SELF-CONSISTENT-FIELD CONVERGENCE--------------------------------------------
 
     iter   Etot(hartree)      deltaE(h)  residm     vres2
 ETOT  1  -8.3669529758200    -8.367E+00 6.482E-03 5.014E+00
 ETOT  2  -8.3729516280375    -5.999E-03 1.226E-05 4.473E-01
 ETOT  3  -8.3734142887568    -4.627E-04 1.867E-05 1.766E-02
 ETOT  4  -8.3734259080295    -1.162E-05 3.274E-06 1.660E-04
 ETOT  5  -8.3734259614086    -5.338E-08 2.303E-07 1.076E-06
 ETOT  6  -8.3734259616394    -2.308E-10 1.591E-05 9.472E-09
 ETOT  7  -8.3734259616423    -2.922E-12 3.905E-08 2.252E-10
 ETOT  8  -8.3734259616425    -1.510E-13 2.542E-09 9.371E-12
 
 At SCF step    8       vres2   =  9.37E-12 < tolvrs=  1.00E-10 =>converged.
 
 Cartesian components of stress tensor (hartree/bohr^3)
  sigma(1 1)=  6.03600047E-05  sigma(3 2)=  1.14431890E-05
  sigma(2 2)=  6.08222639E-05  sigma(3 1)=  0.00000000E+00
  sigma(3 3)=  6.08222639E-05  sigma(2 1)=  0.00000000E+00
 
 Integrated electronic density in atomic spheres:
 ------------------------------------------------
 Atom  Sphere_radius  Integrated_density
    1        2.00000          1.67288994
    2        2.00000          1.68530416
 
---OUTPUT-----------------------------------------------------------------------
 
 Cartesian coordinates (xcart) [bohr]
 -5.10413324776820E-02  5.89534931288993E-18  1.73472347597681E-17
  2.53856055362998E+00  2.59782515122237E+00  2.59782515122237E+00
 Reduced coordinates (xred)
 -4.92455281972418E-03  4.92455281972418E-03 -4.92455281972418E-03
  2.44924552819724E-01  2.55075447180276E-01  2.44924552819724E-01
 Cartesian forces (fcart) [Ha/bohr]; max,rms= 5.05466E-04 2.91831E-04 (free atoms)
  5.05465678703855E-04 -1.08420217248550E-19  1.08420217248550E-19
 -5.05465678703855E-04  1.08420217248550E-19 -1.08420217248550E-19
 Reduced forces (fred)
 -2.61949081543465E-03  0.00000000000000E+00 -2.61949081543465E-03
  2.61949081543465E-03  0.00000000000000E+00  2.61949081543465E-03
 Scale of Primitive Cell (acell) [bohr]
  7.32951162651628E+00  7.34775912306524E+00  7.32951162651628E+00
 Real space primitive translations (rprimd) [bohr]
  5.18233171073396E+00  5.18314792512425E+00  1.25023773204961E-02
  0.00000000000000E+00  5.19565030244475E+00  5.19565030244475E+00
  5.18233171073396E+00  1.25023773204960E-02  5.18314792512425E+00
 Unitary Cell Volume (ucvol) [Bohr^3]=  2.78445295033677E+02
 Angles (23,13,12)= [degrees]
  5.99176107172852E+01  5.98455762539149E+01  5.99176107172852E+01
 Lengths [Bohr]
  7.32951162651628E+00  7.34775912306524E+00  7.32951162651628E+00
 Stress tensor in cartesian coordinates (strten) [Ha/bohr^3]
  6.03600047178255E-05  0.00000000000000E+00  0.00000000000000E+00
  0.00000000000000E+00  6.08222639061063E-05  1.14431889913942E-05
  0.00000000000000E+00  1.14431889913942E-05  6.08222639061071E-05
 Total energy (etotal) [Ha]= -8.37342596164245E+00
 
 Difference of energy with previous step (new-old):
           Absolute (Ha)=-2.00620E-02
           Relative     =-2.39878E-03
 
--- Iteration: ( 4/15) Internal Cycle: (1/1)
--------------------------------------------------------------------------------
 
---SELF-CONSISTENT-FIELD CONVERGENCE--------------------------------------------
 
     iter   Etot(hartree)      deltaE(h)  residm     vres2
 ETOT  1  -8.3734357022622    -8.373E+00 6.232E-04 8.252E-02
 ETOT  2  -8.3735421600717    -1.065E-04 1.861E-08 6.922E-03
 ETOT  3  -8.3735492432185    -7.083E-06 2.325E-07 1.931E-04
 ETOT  4  -8.3735493606314    -1.174E-07 2.737E-08 1.683E-06
 ETOT  5  -8.3735493610950    -4.636E-10 6.912E-10 9.212E-09
 ETOT  6  -8.3735493610971    -2.059E-12 6.659E-10 1.292E-10
 ETOT  7  -8.3735493610971    -5.151E-14 5.710E-10 1.844E-12
 
 At SCF step    7       vres2   =  1.84E-12 < tolvrs=  1.00E-10 =>converged.
 
 Cartesian components of stress tensor (hartree/bohr^3)
  sigma(1 1)= -2.87543661E-05  sigma(3 2)=  1.28622748E-05
  sigma(2 2)= -2.79893303E-05  sigma(3 1)=  0.00000000E+00
  sigma(3 3)= -2.79893303E-05  sigma(2 1)=  0.00000000E+00
 
 Integrated electronic density in atomic spheres:
 ------------------------------------------------
 Atom  Sphere_radius  Integrated_density
    1        2.00000          1.71339959
    2        2.00000          1.73293083
 
---OUTPUT-----------------------------------------------------------------------
 
 Cartesian coordinates (xcart) [bohr]
 -5.44856125438557E-02  6.85080247739278E-18  0.00000000000000E+00
  2.51753334595296E+00  2.57127749832666E+00  2.57127749832666E+00
 Reduced coordinates (xred)
 -5.30909199734677E-03  5.30909199734677E-03 -5.30909199734677E-03
  2.45309091997347E-01  2.54690908002653E-01  2.45309091997347E-01
 Cartesian forces (fcart) [Ha/bohr]; max,rms= 1.50544E-03 8.69163E-04 (free atoms)
  1.50543510014789E-03  1.62630325872826E-19 -1.62630325872826E-19
 -1.50543510014789E-03 -1.62630325872826E-19  1.62630325872826E-19
 Reduced forces (fred)
 -7.72491356502866E-03  0.00000000000000E+00 -7.72491356502866E-03
  7.72491356502866E-03  0.00000000000000E+00  7.72491356502866E-03
 Scale of Primitive Cell (acell) [bohr]
  7.25740902719961E+00  7.27267102151664E+00  7.25740902719961E+00
 Real space primitive translations (rprimd) [bohr]
  5.13134944460230E+00  5.13216628141117E+00  1.03887152421475E-02
  0.00000000000000E+00  5.14255499665331E+00  5.14255499665331E+00
  5.13134944460230E+00  1.03887152421475E-02  5.13216628141117E+00
 Unitary Cell Volume (ucvol) [Bohr^3]=  2.70309460182636E+02
 Angles (23,13,12)= [degrees]
  5.99304104391679E+01  5.98713062046526E+01  5.99304104391679E+01
 Lengths [Bohr]
  7.25740902719961E+00  7.27267102151664E+00  7.25740902719961E+00
 Stress tensor in cartesian coordinates (strten) [Ha/bohr^3]
 -2.87543660732015E-05  0.00000000000000E+00  0.00000000000000E+00
  0.00000000000000E+00 -2.79893302569168E-05  1.28622747876030E-05
  0.00000000000000E+00  1.28622747876030E-05 -2.79893302569173E-05
 Total energy (etotal) [Ha]= -8.37354936109713E+00
 
 Difference of energy with previous step (new-old):
           Absolute (Ha)=-1.23399E-04
           Relative     =-1.47369E-05
 
--- Iteration: ( 5/15) Internal Cycle: (1/1)
--------------------------------------------------------------------------------
 
---SELF-CONSISTENT-FIELD CONVERGENCE--------------------------------------------
 
     iter   Etot(hartree)      deltaE(h)  residm     vres2
 ETOT  1  -8.3735880807498    -8.374E+00 8.063E-08 8.832E-03
 ETOT  2  -8.3735987345545    -1.065E-05 8.415E-09 6.633E-04
 ETOT  3  -8.3735993983963    -6.638E-07 2.125E-08 3.319E-05
 ETOT  4  -8.3735994224300    -2.403E-08 3.969E-09 2.329E-07
 ETOT  5  -8.3735994225052    -7.518E-11 1.703E-10 1.343E-09
 ETOT  6  -8.3735994225056    -4.015E-13 2.968E-06 1.319E-11
 
 At SCF step    6       vres2   =  1.32E-11 < tolvrs=  1.00E-10 =>converged.
 
 Cartesian components of stress tensor (hartree/bohr^3)
  sigma(1 1)= -4.10957650E-06  sigma(3 2)=  9.33850092E-06
  sigma(2 2)= -3.14519038E-06  sigma(3 1)=  0.00000000E+00
  sigma(3 3)= -3.14519038E-06  sigma(2 1)=  0.00000000E+00
 
 Integrated electronic density in atomic spheres:
 ------------------------------------------------
 Atom  Sphere_radius  Integrated_density
    1        2.00000          1.70188080
    2        2.00000          1.71187874
 
---OUTPUT-----------------------------------------------------------------------
 
 Cartesian coordinates (xcart) [bohr]
 -5.24014873668015E-02  1.77470343108721E-17  1.73472347597681E-17
  2.52326235396203E+00  2.57811545067661E+00  2.57811545067661E+00
 Reduced coordinates (xred)
 -5.08986853046169E-03  5.08986853046170E-03 -5.08986853046169E-03
  2.45089868530462E-01  2.54910131469538E-01  2.45089868530462E-01
 Cartesian forces (fcart) [Ha/bohr]; max,rms= 7.26253E-04 4.19302E-04 (free atoms)
  7.26253097119866E-04  0.00000000000000E+00  0.00000000000000E+00
 -7.26253097119866E-04  0.00000000000000E+00  0.00000000000000E+00
 Reduced forces (fred)
 -3.73847991024387E-03  0.00000000000000E+00 -3.73847991024387E-03
  3.73847991024387E-03  0.00000000000000E+00  3.73847991024387E-03
 Scale of Primitive Cell (acell) [bohr]
  7.28036475765575E+00  7.29201167142098E+00  7.28036475765575E+00
 Real space primitive translations (rprimd) [bohr]
  5.14762680540673E+00  5.14835772746095E+00  7.87317389226980E-03
  0.00000000000000E+00  5.15623090135322E+00  5.15623090135322E+00
  5.14762680540673E+00  7.87317389226983E-03  5.14835772746095E+00
 Unitary Cell Volume (ucvol) [Bohr^3]=  2.72881105082628E+02
 Angles (23,13,12)= [degrees]
  5.99470658882738E+01  5.99034992145948E+01  5.99470658882738E+01
 Lengths [Bohr]
  7.28036475765575E+00  7.29201167142098E+00  7.28036475765575E+00
 Stress tensor in cartesian coordinates (strten) [Ha/bohr^3]
 -4.10957650281811E-06  0.00000000000000E+00  0.00000000000000E+00
  0.00000000000000E+00 -3.14519038042711E-06  9.33850091917269E-06
  0.00000000000000E+00  9.33850091917269E-06 -3.14519038042711E-06
 Total energy (etotal) [Ha]= -8.37359942250563E+00
 
 Difference of energy with previous step (new-old):
           Absolute (Ha)=-5.00614E-05
           Relative     =-5.97850E-06
 
--- Iteration: ( 6/15) Internal Cycle: (1/1)
--------------------------------------------------------------------------------
 
---SELF-CONSISTENT-FIELD CONVERGENCE--------------------------------------------
 
     iter   Etot(hartree)      deltaE(h)  residm     vres2
 ETOT  1  -8.3736021254864    -8.374E+00 1.488E-08 7.815E-04
 ETOT  2  -8.3736030277523    -9.023E-07 2.007E-10 2.768E-05
 ETOT  3  -8.3736030545571    -2.680E-08 9.104E-10 2.422E-06
 ETOT  4  -8.3736030565817    -2.025E-09 2.344E-10 1.589E-08
 ETOT  5  -8.3736030565884    -6.702E-12 1.501E-11 1.247E-10
 ETOT  6  -8.3736030565885    -5.151E-14 8.250E-11 1.429E-12
 
 At SCF step    6       vres2   =  1.43E-12 < tolvrs=  1.00E-10 =>converged.
 
 Cartesian components of stress tensor (hartree/bohr^3)
  sigma(1 1)=  1.63157605E-06  sigma(3 2)=  5.38008626E-06
  sigma(2 2)=  2.33259088E-06  sigma(3 1)=  0.00000000E+00
  sigma(3 3)=  2.33259088E-06  sigma(2 1)=  0.00000000E+00
 
 Integrated electronic density in atomic spheres:
 ------------------------------------------------
 Atom  Sphere_radius  Integrated_density
    1        2.00000          1.69371527
    2        2.00000          1.69363047
 
---OUTPUT-----------------------------------------------------------------------
 
 Cartesian coordinates (xcart) [bohr]
 -5.14495192085463E-02  7.95533344061239E-18  6.93889390390723E-18
  2.52387644345778E+00  2.57822346151010E+00  2.57822346151010E+00
 Reduced coordinates (xred)
 -4.99423642775635E-03  4.99423642775635E-03 -4.99423642775635E-03
  2.44994236427756E-01  2.55005763572243E-01  2.44994236427756E-01
 Cartesian forces (fcart) [Ha/bohr]; max,rms= 2.90826E-04 1.67909E-04 (free atoms)
  2.90826354436611E-04  0.00000000000000E+00  0.00000000000000E+00
 -2.90826354436611E-04  0.00000000000000E+00  0.00000000000000E+00
 Reduced forces (fred)
 -1.49801439372985E-03  0.00000000000000E+00 -1.49801439372985E-03
  1.49801439372985E-03  0.00000000000000E+00  1.49801439372985E-03
 Scale of Primitive Cell (acell) [bohr]
  7.28486889618555E+00  7.29231717219218E+00  7.28486889618555E+00
 Real space primitive translations (rprimd) [bohr]
  5.15088942551924E+00  5.15146854561339E+00  4.97837740680672E-03
  0.00000000000000E+00  5.15644692302020E+00  5.15644692302020E+00
  5.15088942551924E+00  4.97837740680672E-03  5.15146854561339E+00
 Unitary Cell Volume (ucvol) [Bohr^3]=  2.73384521383039E+02
 Angles (23,13,12)= [degrees]
  5.99661724864543E+01  5.99397724970102E+01  5.99661724864543E+01
 Lengths [Bohr]
  7.28486889618555E+00  7.29231717219218E+00  7.28486889618555E+00
 Stress tensor in cartesian coordinates (strten) [Ha/bohr^3]
  1.63157605243122E-06  0.00000000000000E+00  0.00000000000000E+00
  0.00000000000000E+00  2.33259087555407E-06  5.38008626019466E-06
  0.00000000000000E+00  5.38008626019466E-06  2.33259087555364E-06
 Total energy (etotal) [Ha]= -8.37360305658847E+00
 
 Difference of energy with previous step (new-old):
           Absolute (Ha)=-3.63408E-06
           Relative     =-4.33993E-07
 
--- Iteration: ( 7/15) Internal Cycle: (1/1)
--------------------------------------------------------------------------------
 
---SELF-CONSISTENT-FIELD CONVERGENCE--------------------------------------------
 
     iter   Etot(hartree)      deltaE(h)  residm     vres2
 ETOT  1  -8.3736039112055    -8.374E+00 5.051E-09 2.678E-04
 ETOT  2  -8.3736042697106    -3.585E-07 5.146E-10 2.913E-06
 ETOT  3  -8.3736042727580    -3.047E-09 2.719E-10 2.103E-07
 ETOT  4  -8.3736042729580    -2.000E-10 5.702E-11 3.317E-09
 ETOT  5  -8.3736042729601    -2.084E-12 1.528E-11 4.866E-11
 
 At SCF step    5       vres2   =  4.87E-11 < tolvrs=  1.00E-10 =>converged.
 
 Cartesian components of stress tensor (hartree/bohr^3)
  sigma(1 1)=  1.11917330E-06  sigma(3 2)=  2.10162117E-06
  sigma(2 2)=  1.60132939E-06  sigma(3 1)=  0.00000000E+00
  sigma(3 3)=  1.60132939E-06  sigma(2 1)=  0.00000000E+00
 
 Integrated electronic density in atomic spheres:
 ------------------------------------------------
 Atom  Sphere_radius  Integrated_density
    1        2.00000          1.69352723
    2        2.00000          1.69350783
 
---OUTPUT-----------------------------------------------------------------------
 
 Cartesian coordinates (xcart) [bohr]
 -5.09591595568111E-02  1.19397764244966E-17  1.38777878078145E-17
  2.52328670636863E+00  2.57681277439206E+00  2.57681277439206E+00
 Reduced coordinates (xred)
 -4.94683574973957E-03  4.94683574973957E-03 -4.94683574973957E-03
  2.44946835749740E-01  2.55053164250260E-01  2.44946835749740E-01
 Cartesian forces (fcart) [Ha/bohr]; max,rms= 1.41643E-05 8.17779E-06 (free atoms)
  1.41643471002300E-05 -2.54109884176290E-21  2.54109884176290E-21
 -1.41643471002300E-05  2.54109884176290E-21 -2.54109884176290E-21
 Reduced forces (fred)
 -7.29560531635472E-05  0.00000000000000E+00 -7.29560531635472E-05
  7.29560531635472E-05  0.00000000000000E+00  7.29560531635472E-05
 Scale of Primitive Cell (acell) [bohr]
  7.28447087329407E+00  7.28832714648298E+00  7.28447087329407E+00
 Real space primitive translations (rprimd) [bohr]
  5.15068238919130E+00  5.15111449340288E+00  2.51105538123737E-03
  0.00000000000000E+00  5.15362554878412E+00  5.15362554878412E+00
  5.15068238919129E+00  2.51105538123738E-03  5.15111449340288E+00
 Unitary Cell Volume (ucvol) [Bohr^3]=  2.73336147447503E+02
 Angles (23,13,12)= [degrees]
  5.99824866141238E+01  5.99705205880121E+01  5.99824866141238E+01
 Lengths [Bohr]
  7.28447087329407E+00  7.28832714648298E+00  7.28447087329407E+00
 Stress tensor in cartesian coordinates (strten) [Ha/bohr^3]
  1.11917330101715E-06  0.00000000000000E+00  0.00000000000000E+00
  0.00000000000000E+00  1.60132938514714E-06  2.10162116545828E-06
  0.00000000000000E+00  2.10162116545828E-06  1.60132938514714E-06
 Total energy (etotal) [Ha]= -8.37360427296009E+00
 
 Difference of energy with previous step (new-old):
           Absolute (Ha)=-1.21637E-06
           Relative     =-1.45263E-07
 
--- Iteration: ( 8/15) Internal Cycle: (1/1)
--------------------------------------------------------------------------------
 
---SELF-CONSISTENT-FIELD CONVERGENCE--------------------------------------------
 
     iter   Etot(hartree)      deltaE(h)  residm     vres2
 ETOT  1  -8.3736044107881    -8.374E+00 2.027E-09 8.623E-05
 ETOT  2  -8.3736045384881    -1.277E-07 3.741E-10 2.308E-06
 ETOT  3  -8.3736045408214    -2.333E-09 1.211E-10 1.724E-07
 ETOT  4  -8.3736045409665    -1.451E-10 3.621E-11 1.611E-09
 ETOT  5  -8.3736045409673    -7.496E-13 8.316E-13 1.396E-11
 
 At SCF step    5       vres2   =  1.40E-11 < tolvrs=  1.00E-10 =>converged.
 
 Cartesian components of stress tensor (hartree/bohr^3)
  sigma(1 1)= -1.94683098E-07  sigma(3 2)=  4.22602904E-07
  sigma(2 2)=  1.36216694E-07  sigma(3 1)=  0.00000000E+00
  sigma(3 3)=  1.36216694E-07  sigma(2 1)=  0.00000000E+00
 
 Integrated electronic density in atomic spheres:
 ------------------------------------------------
 Atom  Sphere_radius  Integrated_density
    1        2.00000          1.69312788
    2        2.00000          1.69313825
 
---OUTPUT-----------------------------------------------------------------------
 
 Cartesian coordinates (xcart) [bohr]
 -5.08415192328873E-02  2.30833418785742E-17  2.42861286636753E-17
  2.52284711120486E+00  2.57571107362328E+00  2.57571107362328E+00
 Reduced coordinates (xred)
 -4.93605866245600E-03  4.93605866245601E-03 -4.93605866245600E-03
  2.44936058662456E-01  2.55063941337544E-01  2.44936058662456E-01
 Cartesian forces (fcart) [Ha/bohr]; max,rms= 1.00951E-04 5.82839E-05 (free atoms)
 -1.00950757496148E-04 -6.77626357803440E-21  6.77626357803440E-21
  1.00950757496148E-04  6.77626357803440E-21 -6.77626357803440E-21
 Reduced forces (fred)
  5.19897577175591E-04  0.00000000000000E+00  5.19897577175591E-04
 -5.19897577175591E-04  0.00000000000000E+00 -5.19897577175591E-04
 Scale of Primitive Cell (acell) [bohr]
  7.28343469884836E+00  7.28521106614521E+00  7.28343469884836E+00
 Real space primitive translations (rprimd) [bohr]
  5.15001164994162E+00  5.15032035934827E+00  1.10178789828356E-03
  0.00000000000000E+00  5.15142214724656E+00  5.15142214724656E+00
  5.15001164994162E+00  1.10178789828346E-03  5.15032035934827E+00
 Unitary Cell Volume (ucvol) [Bohr^3]=  2.73216343524811E+02
 Angles (23,13,12)= [degrees]
  5.99919318084698E+01  5.99878287797742E+01  5.99919318084698E+01
 Lengths [Bohr]
  7.28343469884836E+00  7.28521106614521E+00  7.28343469884836E+00
 Stress tensor in cartesian coordinates (strten) [Ha/bohr^3]
 -1.94683098210611E-07  0.00000000000000E+00  0.00000000000000E+00
  0.00000000000000E+00  1.36216694044192E-07  4.22602904416418E-07
  0.00000000000000E+00  4.22602904416418E-07  1.36216694044625E-07
 Total energy (etotal) [Ha]= -8.37360454096728E+00
 
 Difference of energy with previous step (new-old):
           Absolute (Ha)=-2.68007E-07
           Relative     =-3.20062E-08
 
--- Iteration: ( 9/15) Internal Cycle: (1/1)
--------------------------------------------------------------------------------
 
---SELF-CONSISTENT-FIELD CONVERGENCE--------------------------------------------
 
     iter   Etot(hartree)      deltaE(h)  residm     vres2
 ETOT  1  -8.3736045629507    -8.374E+00 2.930E-11 2.440E-06
 ETOT  2  -8.3736045650046    -2.054E-09 4.870E-12 4.979E-08
 ETOT  3  -8.3736045650549    -5.030E-11 2.312E-12 4.860E-09
 ETOT  4  -8.3736045650594    -4.427E-12 6.834E-13 5.158E-11
 
 At SCF step    4       vres2   =  5.16E-11 < tolvrs=  1.00E-10 =>converged.
 
 Cartesian components of stress tensor (hartree/bohr^3)
  sigma(1 1)= -3.50827134E-07  sigma(3 2)=  2.74817438E-07
  sigma(2 2)= -7.96173548E-08  sigma(3 1)=  0.00000000E+00
  sigma(3 3)= -7.96173548E-08  sigma(2 1)=  0.00000000E+00
 
 Integrated electronic density in atomic spheres:
 ------------------------------------------------
 Atom  Sphere_radius  Integrated_density
    1        2.00000          1.69307400
    2        2.00000          1.69308454
 
---OUTPUT-----------------------------------------------------------------------
 
 Cartesian coordinates (xcart) [bohr]
 -5.09249622593765E-02  1.96918219577680E-17  2.08166817117217E-17
  2.52289736707762E+00  2.57553608777240E+00  2.57553608777240E+00
 Reduced coordinates (xred)
 -4.94422628603292E-03  4.94422628603292E-03 -4.94422628603292E-03
  2.44944226286033E-01  2.55055773713967E-01  2.44944226286033E-01
 Cartesian forces (fcart) [Ha/bohr]; max,rms= 9.33367E-05 5.38880E-05 (free atoms)
 -9.33366937498887E-05  6.77626357803440E-21 -6.77626357803440E-21
  9.33366937498887E-05 -6.77626357803440E-21  6.77626357803440E-21
 Reduced forces (fred)
  4.80678606888951E-04  0.00000000000000E+00  4.80678606888951E-04
 -4.80678606888951E-04  0.00000000000000E+00 -4.80678606888951E-04
 Scale of Primitive Cell (acell) [bohr]
  7.28329827934292E+00  7.28471613141815E+00  7.28329827934292E+00
 Real space primitive translations (rprimd) [bohr]
  5.14994251003801E+00  5.15019661785661E+00  8.75557688190269E-04
  0.00000000000000E+00  5.15107217554481E+00  5.15107217554481E+00
  5.14994251003801E+00  8.75557688190255E-04  5.15019661785661E+00
 Unitary Cell Volume (ucvol) [Bohr^3]=  2.73199551902795E+02
 Angles (23,13,12)= [degrees]
  5.99935601029557E+01  5.99903842119904E+01  5.99935601029557E+01
 Lengths [Bohr]
  7.28329827934292E+00  7.28471613141815E+00  7.28329827934292E+00
 Stress tensor in cartesian coordinates (strten) [Ha/bohr^3]
 -3.50827134251372E-07  0.00000000000000E+00  0.00000000000000E+00
  0.00000000000000E+00 -7.96173547749912E-08  2.74817438418147E-07
  0.00000000000000E+00  2.74817438418147E-07 -7.96173547745575E-08
 Total energy (etotal) [Ha]= -8.37360456505937E+00
 
 Difference of energy with previous step (new-old):
           Absolute (Ha)=-2.40921E-08
           Relative     =-2.87715E-09
 
--- Iteration: (10/15) Internal Cycle: (1/1)
--------------------------------------------------------------------------------
 
---SELF-CONSISTENT-FIELD CONVERGENCE--------------------------------------------
 
     iter   Etot(hartree)      deltaE(h)  residm     vres2
 ETOT  1  -8.3736046078116    -8.374E+00 4.226E-10 2.978E-05
 ETOT  2  -8.3736046199139    -1.210E-08 2.759E-11 1.941E-07
 ETOT  3  -8.3736046201188    -2.049E-10 1.455E-11 1.781E-08
 ETOT  4  -8.3736046201379    -1.913E-11 3.127E-12 4.940E-10
 ETOT  5  -8.3736046201383    -4.476E-13 1.594E-13 3.123E-12
 
 At SCF step    5       vres2   =  3.12E-12 < tolvrs=  1.00E-10 =>converged.
 
 Cartesian components of stress tensor (hartree/bohr^3)
  sigma(1 1)= -4.14717879E-07  sigma(3 2)= -4.71107889E-08
  sigma(2 2)= -3.72030064E-07  sigma(3 1)=  0.00000000E+00
  sigma(3 3)= -3.72030064E-07  sigma(2 1)=  0.00000000E+00
 
 Integrated electronic density in atomic spheres:
 ------------------------------------------------
 Atom  Sphere_radius  Integrated_density
    1        2.00000          1.69301713
    2        2.00000          1.69302298
 
---OUTPUT-----------------------------------------------------------------------
 
 Cartesian coordinates (xcart) [bohr]
 -5.13050608481092E-02  2.50001774382107E-18  0.00000000000000E+00
  2.52328975005661E+00  2.57508830696510E+00  2.57508830696510E+00
 Reduced coordinates (xred)
 -4.98110472014645E-03  4.98110472014645E-03 -4.98110472014645E-03
  2.44981104720146E-01  2.55018895279853E-01  2.44981104720146E-01
 Cartesian forces (fcart) [Ha/bohr]; max,rms= 3.96073E-05 2.28673E-05 (free atoms)
 -3.96073059882310E-05 -3.38813178901720E-21  3.38813178901720E-21
  3.96073059882310E-05  3.38813178901720E-21 -3.38813178901720E-21
 Reduced forces (fred)
  2.03976362466048E-04  0.00000000000000E+00  2.03976362466048E-04
 -2.03976362466048E-04  0.00000000000000E+00 -2.03976362466048E-04
 Scale of Primitive Cell (acell) [bohr]
  7.28318403955648E+00  7.28344961603685E+00  7.28318403955648E+00
 Real space primitive translations (rprimd) [bohr]
  5.14996810251771E+00  5.15000954068892E+00  1.67073241288957E-04
  0.00000000000000E+00  5.15017661393021E+00  5.15017661393021E+00
  5.14996810251771E+00  1.67073241288956E-04  5.15000954068893E+00
 Unitary Cell Volume (ucvol) [Bohr^3]=  2.73181069876901E+02
 Angles (23,13,12)= [degrees]
  5.99987937620965E+01  5.99981198484354E+01  5.99987937620965E+01
 Lengths [Bohr]
  7.28318403955648E+00  7.28344961603685E+00  7.28318403955648E+00
 Stress tensor in cartesian coordinates (strten) [Ha/bohr^3]
 -4.14717878995195E-07  0.00000000000000E+00  0.00000000000000E+00
  0.00000000000000E+00 -3.72030063883460E-07 -4.71107889387680E-08
  0.00000000000000E+00 -4.71107889387680E-08 -3.72030063883460E-07
 Total energy (etotal) [Ha]= -8.37360462013835E+00
 
 Difference of energy with previous step (new-old):
           Absolute (Ha)=-5.50790E-08
           Relative     =-6.57769E-09
 
--- Iteration: (11/15) Internal Cycle: (1/1)
--------------------------------------------------------------------------------
 
---SELF-CONSISTENT-FIELD CONVERGENCE--------------------------------------------
 
     iter   Etot(hartree)      deltaE(h)  residm     vres2
 ETOT  1  -8.3736046313134    -8.374E+00 4.882E-11 4.499E-06
 ETOT  2  -8.3736046318882    -5.748E-10 2.713E-11 2.429E-08
 ETOT  3  -8.3736046319101    -2.192E-11 4.614E-12 2.492E-09
 ETOT  4  -8.3736046319126    -2.517E-12 1.776E-13 6.558E-11
 
 At SCF step    4       vres2   =  6.56E-11 < tolvrs=  1.00E-10 =>converged.
 
 Cartesian components of stress tensor (hartree/bohr^3)
  sigma(1 1)= -1.67815228E-07  sigma(3 2)= -6.26329410E-08
  sigma(2 2)= -2.05793318E-07  sigma(3 1)=  0.00000000E+00
  sigma(3 3)= -2.05793318E-07  sigma(2 1)=  0.00000000E+00
 
 Integrated electronic density in atomic spheres:
 ------------------------------------------------
 Atom  Sphere_radius  Integrated_density
    1        2.00000          1.69307295
    2        2.00000          1.69307480
 
---OUTPUT-----------------------------------------------------------------------
 
 Cartesian coordinates (xcart) [bohr]
 -5.14694445976766E-02 -1.60151431013127E-18  6.93889390390723E-18
  2.52352900346417E+00  2.57503301341332E+00  2.57503301341332E+00
 Reduced coordinates (xred)
 -4.99691306349690E-03  4.99691306349690E-03 -4.99691306349690E-03
  2.44996913063497E-01  2.55003086936503E-01  2.44996913063497E-01
 Cartesian forces (fcart) [Ha/bohr]; max,rms= 9.62132E-06 5.55487E-06 (free atoms)
 -9.62132116052731E-06  4.23516473627150E-22 -4.23516473627150E-22
  9.62132116052731E-06 -4.23516473627150E-22  4.23516473627150E-22
 Reduced forces (fred)
  4.95509977995959E-05  0.00000000000000E+00  4.95509977995959E-05
 -4.95509977995959E-05  0.00000000000000E+00 -4.95509977995959E-05
 Scale of Primitive Cell (acell) [bohr]
  7.28335110303174E+00  7.28329322225517E+00  7.28335110303174E+00
 Real space primitive translations (rprimd) [bohr]
  5.15012408097187E+00  5.15008982834871E+00 -2.38015220545960E-05
  0.00000000000000E+00  5.15006602682665E+00  5.15006602682665E+00
  5.15012408097187E+00 -2.38015220545823E-05  5.15008982834871E+00
 Unitary Cell Volume (ucvol) [Bohr^3]=  2.73197862071553E+02
 Angles (23,13,12)= [degrees]
  6.00002628842292E+01  6.00000857506001E+01  6.00002628842292E+01
 Lengths [Bohr]
  7.28335110303174E+00  7.28329322225517E+00  7.28335110303174E+00
 Stress tensor in cartesian coordinates (strten) [Ha/bohr^3]
 -1.67815228149445E-07  0.00000000000000E+00  0.00000000000000E+00
  0.00000000000000E+00 -2.05793317516797E-07 -6.26329409751311E-08
  0.00000000000000E+00 -6.26329409751311E-08 -2.05793317515929E-07
 Total energy (etotal) [Ha]= -8.37360463191262E+00
 
 Difference of energy with previous step (new-old):
           Absolute (Ha)=-1.17743E-08
           Relative     =-1.40612E-09
 
--- Iteration: (12/15) Internal Cycle: (1/1)
--------------------------------------------------------------------------------
 
---SELF-CONSISTENT-FIELD CONVERGENCE--------------------------------------------
 
     iter   Etot(hartree)      deltaE(h)  residm     vres2
 ETOT  1  -8.3736046335278    -8.374E+00 1.782E-12 4.674E-07
 ETOT  2  -8.3736046338476    -3.197E-10 7.009E-13 1.969E-08
 ETOT  3  -8.3736046338660    -1.844E-11 5.311E-13 1.945E-09
 ETOT  4  -8.3736046338676    -1.613E-12 1.782E-13 1.020E-11
 
 At SCF step    4       vres2   =  1.02E-11 < tolvrs=  1.00E-10 =>converged.
 
 Cartesian components of stress tensor (hartree/bohr^3)
  sigma(1 1)=  3.90456450E-09  sigma(3 2)= -1.41621346E-08
  sigma(2 2)= -4.10366324E-08  sigma(3 1)=  0.00000000E+00
  sigma(3 3)= -4.10366324E-08  sigma(2 1)=  0.00000000E+00
 
 Integrated electronic density in atomic spheres:
 ------------------------------------------------
 Atom  Sphere_radius  Integrated_density
    1        2.00000          1.69312072
    2        2.00000          1.69312079
 
---OUTPUT-----------------------------------------------------------------------
 
 Cartesian coordinates (xcart) [bohr]
 -5.15082173486780E-02  2.24872689117236E-18  3.46944695195361E-18
  2.52361380411172E+00  2.57507990491589E+00  2.57507990491589E+00
 Reduced coordinates (xred)
 -5.00058421042985E-03  5.00058421042986E-03 -5.00058421042985E-03
  2.45000584210430E-01  2.54999415789570E-01  2.45000584210430E-01
 Cartesian forces (fcart) [Ha/bohr]; max,rms= 3.47208E-07 2.00461E-07 (free atoms)
  3.47208174092017E-07  1.32348898008484E-23 -1.32348898008484E-23
 -3.47208174092017E-07 -1.32348898008484E-23  1.32348898008484E-23
 Reduced forces (fred)
 -1.78819847279723E-06  0.00000000000000E+00 -1.78819847279723E-06
  1.78819847279723E-06  0.00000000000000E+00  1.78819847279723E-06
 Scale of Primitive Cell (acell) [bohr]
  7.28348215643936E+00  7.28342585145295E+00  7.28348215643936E+00
 Real space primitive translations (rprimd) [bohr]
  5.15021997242302E+00  5.15017927439877E+00 -1.94645669901108E-05
  0.00000000000000E+00  5.15015980983178E+00  5.15015980983178E+00
  5.15021997242302E+00 -1.94645669900560E-05  5.15017927439877E+00
 Unitary Cell Volume (ucvol) [Bohr^3]=  2.73212438797661E+02
 Angles (23,13,12)= [degrees]
  6.00002557226774E+01  5.99999886376650E+01  6.00002557226774E+01
 Lengths [Bohr]
  7.28348215643936E+00  7.28342585145295E+00  7.28348215643936E+00
 Stress tensor in cartesian coordinates (strten) [Ha/bohr^3]
  3.90456450201707E-09  0.00000000000000E+00  0.00000000000000E+00
  0.00000000000000E+00 -4.10366323574073E-08 -1.41621346132475E-08
  0.00000000000000E+00 -1.41621346132475E-08 -4.10366323569736E-08
 Total energy (etotal) [Ha]= -8.37360463386761E+00
 
 Difference of energy with previous step (new-old):
           Absolute (Ha)=-1.95499E-09
           Relative     =-2.33470E-10
 
--- Iteration: (13/15) Internal Cycle: (1/1)
--------------------------------------------------------------------------------
 
---SELF-CONSISTENT-FIELD CONVERGENCE--------------------------------------------
 
     iter   Etot(hartree)      deltaE(h)  residm     vres2
 ETOT  1  -8.3736046339060    -8.374E+00 3.161E-13 1.930E-08
 ETOT  2  -8.3736046339264    -2.037E-11 5.834E-14 5.641E-10
 ETOT  3  -8.3736046339269    -5.578E-13 2.518E-14 5.176E-11
 
 At SCF step    3       vres2   =  5.18E-11 < tolvrs=  1.00E-10 =>converged.
 
 Cartesian components of stress tensor (hartree/bohr^3)
  sigma(1 1)=  2.32848561E-08  sigma(3 2)= -2.22184405E-10
  sigma(2 2)= -1.11899139E-08  sigma(3 1)=  0.00000000E+00
  sigma(3 3)= -1.11899139E-08  sigma(2 1)=  0.00000000E+00
 
 Integrated electronic density in atomic spheres:
 ------------------------------------------------
 Atom  Sphere_radius  Integrated_density
    1        2.00000          1.69312781
    2        2.00000          1.69312780
 
---OUTPUT-----------------------------------------------------------------------
 
 Cartesian coordinates (xcart) [bohr]
 -5.15026566453083E-02  1.36787692898075E-17  1.38777878078145E-17
  2.52361184896167E+00  2.57509827774460E+00  2.57509827774460E+00
 Reduced coordinates (xred)
 -5.00003706684657E-03  5.00003706684657E-03 -5.00003706684657E-03
  2.45000037066846E-01  2.54999962933153E-01  2.45000037066846E-01
 Cartesian forces (fcart) [Ha/bohr]; max,rms= 1.02814E-07 5.93597E-08 (free atoms)
  1.02813981243264E-07  0.00000000000000E+00  0.00000000000000E+00
 -1.02813981243264E-07  0.00000000000000E+00  0.00000000000000E+00
 Reduced forces (fred)
 -5.29515391937744E-07  0.00000000000000E+00 -5.29515391937744E-07
  5.29515391937744E-07  0.00000000000000E+00  5.29515391937744E-07
 Scale of Primitive Cell (acell) [bohr]
  7.28349970437287E+00  7.28347781766003E+00  7.28349970437287E+00
 Real space primitive translations (rprimd) [bohr]
  5.15022748399244E+00  5.15019657942574E+00 -2.39365417502012E-08
  0.00000000000000E+00  5.15019655548920E+00  5.15019655548920E+00
  5.15022748399244E+00 -2.39365417831372E-08  5.15019657942574E+00
 Unitary Cell Volume (ucvol) [Bohr^3]=  2.73214673318906E+02
 Angles (23,13,12)= [degrees]
  6.00000994036246E+01  5.99998018077264E+01  6.00000994036246E+01
 Lengths [Bohr]
  7.28349970437287E+00  7.28347781766003E+00  7.28349970437287E+00
 Stress tensor in cartesian coordinates (strten) [Ha/bohr^3]
  2.32848560680239E-08  0.00000000000000E+00  0.00000000000000E+00
  0.00000000000000E+00 -1.11899138574914E-08 -2.22184405205758E-10
  0.00000000000000E+00 -2.22184405205758E-10 -1.11899138579251E-08
 Total energy (etotal) [Ha]= -8.37360463392694E+00
 
 Difference of energy with previous step (new-old):
           Absolute (Ha)=-5.93356E-11
           Relative     =-7.08603E-12
 
--- Iteration: (14/15) Internal Cycle: (1/1)
--------------------------------------------------------------------------------
 
---SELF-CONSISTENT-FIELD CONVERGENCE--------------------------------------------
 
     iter   Etot(hartree)      deltaE(h)  residm     vres2
 ETOT  1  -8.3736046339327    -8.374E+00 7.192E-15 9.936E-10
 ETOT  2  -8.3736046339332    -5.702E-13 7.029E-16 5.689E-12
 
 At SCF step    2       vres2   =  5.69E-12 < tolvrs=  1.00E-10 =>converged.
 
 Cartesian components of stress tensor (hartree/bohr^3)
  sigma(1 1)=  1.94096344E-08  sigma(3 2)=  2.10429270E-09
  sigma(2 2)= -8.15963285E-09  sigma(3 1)=  0.00000000E+00
  sigma(3 3)= -8.15963285E-09  sigma(2 1)=  0.00000000E+00
 
 Integrated electronic density in atomic spheres:
 ------------------------------------------------
 Atom  Sphere_radius  Integrated_density
    1        2.00000          1.69312831
    2        2.00000          1.69312831
 
---OUTPUT-----------------------------------------------------------------------
 
 Cartesian coordinates (xcart) [bohr]
 -5.15006559915467E-02  5.15004634608985E-18  3.46944695195361E-18
  2.52360815559904E+00  2.57510188647844E+00  2.57510188647844E+00
 Reduced coordinates (xred)
 -4.99984626070414E-03  4.99984626070414E-03 -4.99984626070414E-03
  2.44999846260704E-01  2.55000153739295E-01  2.44999846260704E-01
 Cartesian forces (fcart) [Ha/bohr]; max,rms= 1.43833E-07 8.30420E-08 (free atoms)
 -1.43833023873745E-07  0.00000000000000E+00  0.00000000000000E+00
  1.43833023873745E-07  0.00000000000000E+00  0.00000000000000E+00
 Reduced forces (fred)
  7.40772285436477E-07  0.00000000000000E+00  7.40772285436477E-07
 -7.40772285436477E-07  0.00000000000000E+00 -7.40772285436477E-07
 Scale of Primitive Cell (acell) [bohr]
  7.28349926127280E+00  7.28348802470072E+00  7.28349926127280E+00
 Real space primitive translations (rprimd) [bohr]
  5.15022395751562E+00  5.15019947927991E+00  4.29367697473110E-06
  0.00000000000000E+00  5.15020377295689E+00  5.15020377295689E+00
  5.15022395751562E+00  4.29367697463740E-06  5.15019947927991E+00
 Unitary Cell Volume (ucvol) [Bohr^3]=  2.73214793913210E+02
 Angles (23,13,12)= [degrees]
  6.00000510335353E+01  5.99997876201218E+01  6.00000510335353E+01
 Lengths [Bohr]
  7.28349926127280E+00  7.28348802470072E+00  7.28349926127280E+00
 Stress tensor in cartesian coordinates (strten) [Ha/bohr^3]
  1.94096344287818E-08  0.00000000000000E+00  0.00000000000000E+00
  0.00000000000000E+00 -8.15963285220184E-09  2.10429270471220E-09
  0.00000000000000E+00  2.10429270471220E-09 -8.15963285176816E-09
 Total energy (etotal) [Ha]= -8.37360463393324E+00
 
 Difference of energy with previous step (new-old):
           Absolute (Ha)=-6.29008E-12
           Relative     =-7.51179E-13
 
--- Iteration: (15/15) Internal Cycle: (1/1)
--------------------------------------------------------------------------------
 
---SELF-CONSISTENT-FIELD CONVERGENCE--------------------------------------------
 
     iter   Etot(hartree)      deltaE(h)  residm     vres2
 ETOT  1  -8.3736046339412    -8.374E+00 2.353E-14 3.397E-10
 ETOT  2  -8.3736046339413    -1.688E-13 6.917E-16 3.220E-12
 
 At SCF step    2       vres2   =  3.22E-12 < tolvrs=  1.00E-10 =>converged.
 
 Cartesian components of stress tensor (hartree/bohr^3)
  sigma(1 1)=  1.15669882E-08  sigma(3 2)=  3.45437017E-09
  sigma(2 2)= -1.68818643E-09  sigma(3 1)=  0.00000000E+00
  sigma(3 3)= -1.68818643E-09  sigma(2 1)=  0.00000000E+00
 
 Integrated electronic density in atomic spheres:
 ------------------------------------------------
 Atom  Sphere_radius  Integrated_density
    1        2.00000          1.69312874
    2        2.00000          1.69312874
 
---OUTPUT-----------------------------------------------------------------------
 
 Cartesian coordinates (xcart) [bohr]
 -5.14994130201232E-02 -3.34723597953258E-19 -3.46944695195361E-18
  2.52360306369859E+00  2.57510568967560E+00  2.57510568967560E+00
 Reduced coordinates (xred)
 -4.99973337341151E-03  4.99973337341151E-03 -4.99973337341151E-03
  2.44999733373411E-01  2.55000266626588E-01  2.44999733373411E-01
 Cartesian forces (fcart) [Ha/bohr]; max,rms= 2.99154E-07 1.72717E-07 (free atoms)
 -2.99154139335413E-07 -2.64697796016969E-23  2.64697796016969E-23
  2.99154139335413E-07  2.64697796016969E-23 -2.64697796016969E-23
 Reduced forces (fred)
  1.54070841659719E-06  0.00000000000000E+00  1.54070841659719E-06
 -1.54070841659719E-06  0.00000000000000E+00 -1.54070841659719E-06
 Scale of Primitive Cell (acell) [bohr]
  7.28349735913591E+00  7.28349878176673E+00  7.28349735913591E+00
 Real space primitive translations (rprimd) [bohr]
  5.15021593891348E+00  5.15020480787494E+00  6.57147627234055E-06
  0.00000000000000E+00  5.15021137935121E+00  5.15021137935121E+00
  5.15021593891348E+00  6.57147627236001E-06  5.15020480787494E+00
 Unitary Cell Volume (ucvol) [Bohr^3]=  2.73214933889793E+02
 Angles (23,13,12)= [degrees]
  5.99999935387839E+01  5.99998440884691E+01  5.99999935387839E+01
 Lengths [Bohr]
  7.28349735913591E+00  7.28349878176673E+00  7.28349735913591E+00
 Stress tensor in cartesian coordinates (strten) [Ha/bohr^3]
  1.15669882452644E-08  0.00000000000000E+00  0.00000000000000E+00
  0.00000000000000E+00 -1.68818643135962E-09  3.45437016599677E-09
  0.00000000000000E+00  3.45437016599677E-09 -1.68818643222698E-09
 Total energy (etotal) [Ha]= -8.37360463394133E+00
 
 Difference of energy with previous step (new-old):
           Absolute (Ha)=-8.09486E-12
           Relative     =-9.66711E-13
 
 fconv : WARNING -
  ntime=   15 was not enough Broyd/MD steps to converge gradients: 
  max grad (force/stress) = 1.1567E-06 > tolmxf= 1.0000E-08 ha/bohr (free atoms)
 
================================================================================
 
 ----iterations are completed or convergence reached----
 
 Mean square residual over all n,k,spin=   34.504E-18; max=  69.169E-17
 reduced coordinates (array xred) for    2 atoms
      -0.004999733373      0.004999733373     -0.004999733373
       0.244999733373      0.255000266627      0.244999733373
 rms dE/dt=  1.2580E-06; max dE/dt=  1.5407E-06; dE/dt below (all hartree)
    1       0.000001540708      0.000000000000      0.000001540708
    2      -0.000001540708     -0.000000000000     -0.000001540708
 
 cartesian coordinates (angstrom) at end:
    1     -0.02725231562601    -0.00000000000000    -0.00000000000000
    2      1.33543322483719     1.36268724068676     1.36268724068676
 
 cartesian forces (hartree/bohr) at end:
    1     -0.00000029915414    -0.00000000000000     0.00000000000000
    2      0.00000029915414     0.00000000000000    -0.00000000000000
 frms,max,avg= 1.7271672E-07 2.9915414E-07   0.000E+00  0.000E+00  0.000E+00 h/b
 
 cartesian forces (eV/Angstrom) at end:
    1     -0.00001538312306    -0.00000000000000     0.00000000000000
    2      0.00001538312306     0.00000000000000    -0.00000000000000
 frms,max,avg= 8.8814502E-06 1.5383123E-05   0.000E+00  0.000E+00  0.000E+00 e/A
 length scales=  7.283497359136  7.283498781767  7.283497359136 bohr
              =  3.854260801280  3.854261554104  3.854260801280 angstroms
 prteigrs : about to open file opto_EIG
 Fermi (or HOMO) energy (hartree) =   0.12843   Average Vxc (hartree)=  -0.33963
 Eigenvalues (hartree) for nkpt=   6  k points:
 kpt#   1, nband=  6, wtk=  0.25000, kpt= -0.2500  0.5000  0.0000 (reduced coord)
  -0.16361   -0.06340    0.03021    0.07487    0.22594    0.33283
 prteigrs : prtvol=0 or 1, do not print more k-points.
 
 
--------------------------------------------------------------------------------
 Components of total free energy (in Hartree) :
 
    Kinetic energy  =  3.00284244153452E+00
    Hartree energy  =  5.32891380326219E-01
    XC energy       = -3.07881215115815E+00
    Ewald energy    = -8.36750283037739E+00
    PspCore energy  =  5.47157030201736E-01
    Loc. psp. energy= -2.16750479654602E+00
    NL   psp  energy=  1.15732429207776E+00
    >>>>>>>>> Etotal= -8.37360463394133E+00
 
 Other information on the energy :
    Total energy(eV)= -2.27857369986052E+02 ; Band energy (Ha)=  -1.6022909231E-01
--------------------------------------------------------------------------------
 
 
 rms coord change=  4.9997E-03   atom, delta coord (reduced):
     1       -0.004999733373      0.004999733373     -0.004999733373
     2        0.004999733373     -0.004999733373      0.004999733373
 
 Cartesian components of stress tensor (hartree/bohr^3)
  sigma(1 1)=  1.15669882E-08  sigma(3 2)=  3.45437017E-09
  sigma(2 2)= -1.68818643E-09  sigma(3 1)=  0.00000000E+00
  sigma(3 3)= -1.68818643E-09  sigma(2 1)=  0.00000000E+00
 
-Cartesian components of stress tensor (GPa)         [Pressure= -8.0325E-05 GPa]
- sigma(1 1)=  3.40312486E-04  sigma(3 2)=  1.01631062E-04
- sigma(2 2)= -4.96681512E-05  sigma(3 1)=  0.00000000E+00
- sigma(3 3)= -4.96681513E-05  sigma(2 1)=  0.00000000E+00
 
== END DATASET(S) ==============================================================
================================================================================
  
 -outvars: echo values of variables after computation  --------
            acell      7.2834973591E+00  7.2834987818E+00  7.2834973591E+00 Bohr
              amu      2.80855000E+01
          dilatmx      1.05000000E+00
             ecut      4.00000000E+00 Hartree
           ecutsm      5.00000000E-01 Hartree
           etotal     -8.3736046339E+00
            fcart     -2.9915413934E-07 -2.6469779602E-23  2.6469779602E-23
                       2.9915413934E-07  2.6469779602E-23 -2.6469779602E-23
-          fftalg         312
           ionmov           2
              ixc          11
              kpt     -2.50000000E-01  5.00000000E-01  0.00000000E+00
                       5.00000000E-01 -2.50000000E-01  0.00000000E+00
                      -2.50000000E-01  0.00000000E+00  0.00000000E+00
                       0.00000000E+00 -2.50000000E-01  0.00000000E+00
                       2.50000000E-01 -2.50000000E-01  2.50000000E-01
                       5.00000000E-01  0.00000000E+00  2.50000000E-01
         kptrlatt        2   -2    2     -2    2    2     -2   -2    2
          kptrlen      2.26767136E+01
P           mkmem           1
            natom           2
            nband           6
            ngfft          16      16      16
             nkpt           6
             nsym           8
            ntime          15
           ntypat           1
              occ      2.000000  2.000000  2.000000  2.000000  0.000000  0.000000
          optcell           2
            rprim      7.0710754531E-01  7.0710601706E-01  9.0224186930E-07
                       0.0000000000E+00  7.0710678119E-01  7.0710678119E-01
                       7.0710754531E-01  9.0224186930E-07  7.0710601706E-01
           shiftk      5.00000000E-01  5.00000000E-01  5.00000000E-01
          spgroup          74
           strten      1.1566988245E-08 -1.6881864314E-09 -1.6881864322E-09
                       3.4543701660E-09  0.0000000000E+00  0.0000000000E+00
           symrel      1  0  0   0  1  0   0  0  1      -1  0  0   0 -1  0   0  0 -1
                       0 -1  1   0 -1  0   1 -1  0       0  1 -1   0  1  0  -1  1  0
                       0  0  1   0  1  0   1  0  0       0  0 -1   0 -1  0  -1  0  0
                       1 -1  0   0 -1  0   0 -1  1      -1  1  0   0  1  0   0  1 -1
            tnons      0.0000000  0.0000000  0.0000000     0.2400000  0.2600000  0.2400000
                       0.0000000  0.0000000  0.0000000     0.2400000  0.2600000  0.2400000
                       0.0000000  0.0000000  0.0000000     0.2400000  0.2600000  0.2400000
                       0.0000000  0.0000000  0.0000000     0.2400000  0.2600000  0.2400000
           tolmxf      1.00000000E-08
           tolvrs      1.00000000E-10
            typat      1  1
              wtk        0.25000    0.25000    0.12500    0.12500    0.12500    0.12500
           xangst     -2.7252315626E-02 -1.7712809921E-19 -1.8359522534E-18
                       1.3354332248E+00  1.3626872407E+00  1.3626872407E+00
            xcart     -5.1499413020E-02 -3.3472359795E-19 -3.4694469520E-18
                       2.5236030637E+00  2.5751056897E+00  2.5751056897E+00
             xred     -4.9997333734E-03  4.9997333734E-03 -4.9997333734E-03
                       2.4499973337E-01  2.5500026663E-01  2.4499973337E-01
            znucl       14.00000
 
================================================================================


- Timing analysis has been suppressed with timopt=0



================================================================================

 Suggested references for the acknowledgment of ABINIT usage.

 The users of ABINIT have little formal obligations with respect to the ABINIT group
 (those specified in the GNU General Public License, http://www.gnu.org/copyleft/gpl.txt).
 However, it is common practice in the scientific literature,
 to acknowledge the efforts of people that have made the research possible.
 In this spirit, please find below suggested citations of work written by ABINIT developers,
 corresponding to implementations inside of ABINIT that you have used in the present run.
 Note also that it will be of great value to readers of publications presenting these results,
 to read papers enabling them to understand the theoretical formalism and details
 of the ABINIT implementation.
 For information on why they are suggested, see also https://docs.abinit.org/theory/acknowledgments.
-
- [1] Recent developments in the ABINIT software package.
- Computer Phys. Comm. 205, 106 (2016).
- X.Gonze, F.Jollet, F.Abreu Araujo, D.Adams, B.Amadon, T.Applencourt,
- C.Audouze, J.-M.Beuken, J.Bieder, A.Bokhanchuk, E.Bousquet, F.Bruneval
- D.Caliste, M.Cote, F.Dahm, F.Da Pieve, M.Delaveau, M.Di Gennaro,
- B.Dorado, C.Espejo, G.Geneste, L.Genovese, A.Gerossier, M.Giantomassi,
- Y.Gillet, D.R.Hamann, L.He, G.Jomard, J.Laflamme Janssen, S.Le Roux,
- A.Levitt, A.Lherbier, F.Liu, I.Lukacevic, A.Martin, C.Martins,
- M.J.T.Oliveira, S.Ponce, Y.Pouillon, T.Rangel, G.-M.Rignanese,
- A.H.Romero, B.Rousseau, O.Rubel, A.A.Shukri, M.Stankovski, M.Torrent,
- M.J.Van Setten, B.Van Troeye, M.J.Verstraete, D.Waroquier, J.Wiktor,
- B.Xu, A.Zhou, J.W.Zwanziger.
- Comment: the fourth generic paper describing the ABINIT project.
- Note that a version of this paper, that is not formatted for Computer Phys. Comm. 
- is available at https://www.abinit.org/about/ABINIT16.pdf .
- The licence allows the authors to put it on the Web.
- DOI and bibtex: see https://docs.abinit.org/theory/bibliography/#gonze2016
-
- [2] Optimized norm-conserving Vanderbilt pseudopotentials.
- D.R. Hamann, Phys. Rev. B 88, 085117 (2013).
- Comment: Some pseudopotential generated using the ONCVPSP code were used.
- DOI and bibtex: see https://docs.abinit.org/theory/bibliography/#hamann2013
-
- [3] ABINIT: First-principles approach of materials and nanosystem properties.
- Computer Phys. Comm. 180, 2582-2615 (2009).
- X. Gonze, B. Amadon, P.-M. Anglade, J.-M. Beuken, F. Bottin, P. Boulanger, F. Bruneval,
- D. Caliste, R. Caracas, M. Cote, T. Deutsch, L. Genovese, Ph. Ghosez, M. Giantomassi
- S. Goedecker, D.R. Hamann, P. Hermet, F. Jollet, G. Jomard, S. Leroux, M. Mancini, S. Mazevet,
- M.J.T. Oliveira, G. Onida, Y. Pouillon, T. Rangel, G.-M. Rignanese, D. Sangalli, R. Shaltaf,
- M. Torrent, M.J. Verstraete, G. Zerah, J.W. Zwanziger
- Comment: the third generic paper describing the ABINIT project.
- Note that a version of this paper, that is not formatted for Computer Phys. Comm. 
- is available at https://www.abinit.org/about/ABINIT_CPC_v10.pdf .
- The licence allows the authors to put it on the Web.
- DOI and bibtex: see https://docs.abinit.org/theory/bibliography/#gonze2009
-
- [4] A brief introduction to the ABINIT software package.
- Z. Kristallogr. 220, 558-562 (2005).
- X. Gonze, G.-M. Rignanese, M. Verstraete, J.-M. Beuken, Y. Pouillon, R. Caracas, F. Jollet,
- M. Torrent, G. Zerah, M. Mikami, Ph. Ghosez, M. Veithen, J.-Y. Raty, V. Olevano, F. Bruneval,
- L. Reining, R. Godby, G. Onida, D.R. Hamann, and D.C. Allan.
- Comment: the second generic paper describing the ABINIT project. Note that this paper
- should be cited especially if you are using the GW part of ABINIT, as several authors
- of this part are not in the list of authors of the first or third paper.
- The .pdf of the latter paper is available at https://www.abinit.org/about/zfk_0505-06_558-562.pdf.
- Note that it should not redistributed (Copyright by Oldenburg Wissenshaftverlag,
- the licence allows the authors to put it on the Web).
- DOI and bibtex: see https://docs.abinit.org/theory/bibliography/#gonze2005
-
- And optionally:
-
- [5] First-principles computation of material properties: the ABINIT software project. 
- X. Gonze, J.-M. Beuken, R. Caracas, F. Detraux, M. Fuchs, G.-M. Rignanese, L. Sindic,
- M. Verstraete, G. Zerah, F. Jollet, M. Torrent, A. Roy, M. Mikami, Ph. Ghosez, J.-Y. Raty, D.C. Allan.
- Computational Materials Science 25, 478-492 (2002). http://dx.doi.org/10.1016/S0927-0256(02)00325-7
- Comment: the original paper describing the ABINIT project.
- DOI and bibtex : see https://docs.abinit.org/theory/bibliography/#gonze2002
-
- Proc.   0 individual time (sec): cpu=          4.1  wall=          8.6
 
================================================================================
 
 Calculation completed.
.Delivered  13 WARNINGs and  15 COMMENTs to log file.
+Overall time at end (sec) : cpu=         44.6  wall=         51.5

External calculated distance:
distance  4.460212034405999